# vtk DataFile Version 3.0
pressure
ASCII

DATASET UNSTRUCTURED_GRID
POINTS 639 double
 -0.00348400  -0.00236600  -0.00020300
 -0.00348400  -0.00236600   0.00020300
 -0.00348400  -0.00226400  -0.00071800
 -0.00348400  -0.00226400   0.00071800
 -0.00348400  -0.00216200  -0.00022000
 -0.00348400  -0.00215900   0.00023400
 -0.00348400  -0.00210800  -0.00109300
 -0.00348400  -0.00210800   0.00109300
 -0.00348400  -0.00208700   0.00061100
 -0.00348400  -0.00208400  -0.00061000
 -0.00348400  -0.00190800  -0.00104300
 -0.00348400  -0.00190500   0.00104200
 -0.00348400  -0.00181700  -0.00153000
 -0.00348400  -0.00181700   0.00153000
 -0.00348400  -0.00169400   0.00136400
 -0.00348400  -0.00169200  -0.00136100
 -0.00348400  -0.00166100   0.00021100
 -0.00348400  -0.00161600   0.00044100
 -0.00348400  -0.00161500  -0.00044000
 -0.00348400  -0.00153099  -0.00181601
 -0.00348400  -0.00153000   0.00181700
 -0.00348400  -0.00145400  -0.00083100
 -0.00348400  -0.00145300   0.00083100
 -0.00348400  -0.00136400  -0.00169400
 -0.00348400  -0.00136100   0.00169200
 -0.00348400  -0.00132400   0.00102500
 -0.00348400  -0.00132300  -0.00102500
 -0.00348400  -0.00109300  -0.00210800
 -0.00348400  -0.00109300   0.00210800
 -0.00348400  -0.00104300   0.00190800
 -0.00348400  -0.00104200  -0.00190500
 -0.00348400  -0.00102500  -0.00132400
 -0.00348400  -0.00100400   0.00128800
 -0.00348400  -0.00083100  -0.00145300
 -0.00348400  -0.00082500   0.00144000
 -0.00348400  -0.00071800  -0.00226400
 -0.00348400  -0.00071800   0.00226400
 -0.00348400  -0.00061100  -0.00208700
 -0.00348400  -0.00061000   0.00208400
 -0.00348400  -0.00044000   0.00161500
 -0.00348400  -0.00043500  -0.00160200
 -0.00348400  -0.00023400  -0.00215900
 -0.00348400  -0.00023400   0.00216200
 -0.00348400  -0.00021000   0.00165200
 -0.00348400  -0.00020700  -0.00162000
 -0.00348225  -0.00020300  -0.00236600
 -0.00348400  -0.00020300   0.00236600
 -0.00348400   0.00020300  -0.00236600
 -0.00348400   0.00020300   0.00236600
 -0.00348400   0.00020700  -0.00162000
 -0.00348400   0.00021000   0.00165200
 -0.00348400   0.00023400  -0.00215900
 -0.00348400   0.00023400   0.00216200
 -0.00348400   0.00043500  -0.00160200
 -0.00348400   0.00044000   0.00161500
 -0.00348400   0.00061000   0.00208400
 -0.00348400   0.00061100  -0.00208700
 -0.00348400   0.00071800  -0.00226400
 -0.00348400   0.00071800   0.00226400
 -0.00348400   0.00082500   0.00144000
 -0.00348400   0.00083100  -0.00145300
 -0.00348400   0.00100400   0.00128800
 -0.00348400   0.00102500  -0.00132400
 -0.00348400   0.00104200  -0.00190500
 -0.00348400   0.00104300   0.00190800
 -0.00348400   0.00109300  -0.00210800
 -0.00348400   0.00109300   0.00210800
 -0.00348400   0.00132300  -0.00102500
 -0.00348400   0.00132400   0.00102500
 -0.00348400   0.00136100   0.00169200
 -0.00348400   0.00136400  -0.00169400
 -0.00348400   0.00145300   0.00083100
 -0.00348400   0.00145400  -0.00083100
 -0.00348400   0.00153000  -0.00181700
 -0.00348400   0.00153000   0.00181700
 -0.00348400   0.00161500  -0.00044000
 -0.00348400   0.00161600   0.00044100
 -0.00348400   0.00166100  -0.00021100
 -0.00348400   0.00166100   0.00021100
 -0.00348400   0.00169200  -0.00136100
 -0.00348400   0.00169400   0.00136400
 -0.00348298   0.00181700  -0.00153000
 -0.00348400   0.00181700   0.00153000
 -0.00348400   0.00190500   0.00104200
 -0.00348400   0.00190800  -0.00104300
 -0.00348400   0.00208400  -0.00061000
 -0.00348400   0.00208700   0.00061100
 -0.00348400   0.00210800  -0.00109300
 -0.00348400   0.00210800   0.00109300
 -0.00348400   0.00215900   0.00023400
 -0.00348400   0.00216200  -0.00022000
 -0.00348400   0.00226400  -0.00071800
 -0.00348400   0.00226400   0.00071800
 -0.00348400   0.00236600  -0.00020300
 -0.00348400   0.00236600   0.00020300
  0.00351600  -0.00236600  -0.00020300
  0.00351600  -0.00236600   0.00020300
  0.00351600  -0.00226400  -0.00071800
  0.00351600  -0.00226400   0.00071800
  0.00351600  -0.00215900   0.00023400
  0.00351600  -0.00215500  -0.00023400
  0.00351600  -0.00210800  -0.00109300
  0.00351600  -0.00210800   0.00109300
  0.00351600  -0.00208400  -0.00061000
  0.00351600  -0.00208100   0.00060900
  0.00351600  -0.00190500   0.00104200
  0.00351600  -0.00190200  -0.00104100
  0.00351600  -0.00181700  -0.00153000
  0.00351600  -0.00181700   0.00153000
  0.00351600  -0.00169200  -0.00136100
  0.00351600  -0.00168900   0.00135900
  0.00351600  -0.00165900  -0.00021200
  0.00351600  -0.00165900   0.00021200
  0.00351600  -0.00161400  -0.00043900
  0.00351600  -0.00161400   0.00043900
  0.00351600  -0.00153000  -0.00181700
  0.00351600  -0.00153000   0.00181700
  0.00351600  -0.00145200   0.00083100
  0.00351600  -0.00145100  -0.00083100
  0.00351600  -0.00136100   0.00169200
  0.00351600  -0.00135900  -0.00168900
  0.00351600  -0.00132300  -0.00102300
  0.00351600  -0.00132300   0.00102300
  0.00351600  -0.00109300  -0.00210800
  0.00351600  -0.00109300   0.00210800
  0.00351600  -0.00104200  -0.00190500
  0.00351600  -0.00104100   0.00190200
  0.00351600  -0.00102300  -0.00132300
  0.00351600  -0.00102300   0.00132300
  0.00351600  -0.00083100  -0.00145200
  0.00351600  -0.00083100   0.00145100
  0.00351600  -0.00071800  -0.00226400
  0.00351137  -0.00071800   0.00226400
  0.00351600  -0.00061000   0.00208400
  0.00351600  -0.00060900  -0.00208100
  0.00351600  -0.00043900  -0.00161400
  0.00351600  -0.00043900   0.00161400
  0.00351600  -0.00023400  -0.00215900
  0.00351600  -0.00023400   0.00215500
  0.00351600  -0.00020800  -0.00161800
  0.00351600  -0.00020800   0.00161800
  0.00351600  -0.00020300  -0.00236600
  0.00351600  -0.00020300   0.00236600
  0.00351600   0.00020300  -0.00236600
  0.00351600   0.00020300   0.00236600
  0.00351600   0.00020800  -0.00161800
  0.00351600   0.00020800   0.00161800
  0.00351600   0.00023400  -0.00215900
  0.00351600   0.00023400   0.00215500
  0.00351600   0.00043900  -0.00161400
  0.00351600   0.00043900   0.00161400
  0.00351600   0.00060900  -0.00208100
  0.00351600   0.00061000   0.00208400
  0.00351600   0.00071800  -0.00226400
  0.00351600   0.00071800   0.00226400
  0.00351600   0.00083100  -0.00145200
  0.00351600   0.00083100   0.00145100
  0.00351600   0.00102300  -0.00132300
  0.00351600   0.00102300   0.00132300
  0.00351600   0.00104100   0.00190200
  0.00351600   0.00104200  -0.00190500
  0.00351600   0.00109300  -0.00210800
  0.00351600   0.00109300   0.00210800
  0.00351600   0.00132300  -0.00102300
  0.00351600   0.00132300   0.00102300
  0.00351600   0.00135900  -0.00168900
  0.00351600   0.00136100   0.00169200
  0.00351600   0.00145100  -0.00083100
  0.00351600   0.00145200   0.00083100
  0.00351600   0.00153000  -0.00181700
  0.00351600   0.00153000   0.00181700
  0.00351600   0.00161400  -0.00043900
  0.00351600   0.00161400   0.00043900
  0.00351600   0.00165900  -0.00021200
  0.00351600   0.00165900   0.00021200
  0.00351600   0.00168900   0.00135900
  0.00351600   0.00169200  -0.00136100
  0.00351600   0.00181700  -0.00153000
  0.00351600   0.00181700   0.00153000
  0.00351600   0.00190200  -0.00104100
  0.00351600   0.00190500   0.00104200
  0.00351600   0.00208100   0.00060900
  0.00351600   0.00208400  -0.00061000
  0.00351600   0.00210800  -0.00109300
  0.00351600   0.00210800   0.00109300
  0.00351600   0.00215500  -0.00023400
  0.00351600   0.00215900   0.00023400
  0.00351600   0.00226400  -0.00071800
  0.00351600   0.00226400   0.00071800
  0.00351600   0.00236600  -0.00020300
  0.00351600   0.00236600   0.00020300
  0.00194666  -0.00102345  -0.00132322
  0.00314302  -0.00188975  -0.00103524
 -0.00079495  -0.00145285  -0.00083100
  0.00154219  -0.00145185  -0.00083100
  0.00308445  -0.00213760   0.00023301
 -0.00328005   0.00169200  -0.00136100
 -0.00201567   0.00169200  -0.00136100
 -0.00144973   0.00132371   0.00102442
  0.00280332   0.00132310   0.00102320
 -0.00275559   0.00153000   0.00181700
 -0.00076737   0.00020300   0.00236600
  0.00211619   0.00020780  -0.00161840
 -0.00175344   0.00145326  -0.00083100
  0.00241135   0.00145147  -0.00083100
  0.00337099   0.00023398  -0.00215911
 -0.00066031  -0.00071800   0.00226400
 -0.00242271  -0.00208400  -0.00061000
  0.00129317  -0.00206588  -0.00060343
 -0.00244837  -0.00020715  -0.00161970
  0.00202703  -0.00020779  -0.00161843
 -0.00152219  -0.00100932   0.00129781
  0.00159491  -0.00101779   0.00131339
  0.00235491  -0.00208304   0.00060995
 -0.00306647   0.00100513   0.00129009
  0.00169727   0.00101806   0.00131391
 -0.00233612  -0.00043650  -0.00160628
  0.00211256  -0.00020845   0.00162592
 -0.00040788   0.00161456  -0.00043956
 -0.00218120   0.00166063  -0.00021119
 -0.00064321  -0.00061000   0.00208400
 -0.00141526   0.00145748   0.00083323
  0.00275749  -0.00145133  -0.00083100
 -0.00196163   0.00102457  -0.00132378
  0.00033708   0.00102391  -0.00132345
 -0.00317647  -0.00145297   0.00083098
  0.00166331   0.00020853   0.00162700
  0.00257077   0.00190519  -0.00104230
 -0.00037080   0.00166011   0.00021144
  0.00162805  -0.00082938   0.00144803
  0.00067521  -0.00208973  -0.00023066
 -0.00031175  -0.00165945  -0.00021466
 -0.00004446  -0.00187779  -0.00102929
  0.00001594  -0.00210791  -0.00109322
  0.00161497   0.00033583   0.00162503
  0.00145546   0.00215706  -0.00022988
 -0.00040165   0.00166114  -0.00021149
  0.00220210   0.00165938  -0.00021181
  0.00101996  -0.00132300  -0.00102371
  0.00220943  -0.00132300  -0.00102337
 -0.00098776  -0.00132300  -0.00102429
  0.00259780   0.00083100  -0.00145213
 -0.00146411   0.00083100  -0.00145271
 -0.00159329  -0.00136444  -0.00169433
 -0.00007919  -0.00226400  -0.00071800
 -0.00308173  -0.00181700   0.00153000
 -0.00013463  -0.00161504   0.00044004
  0.00300142  -0.00132307   0.00102315
  0.00050425  -0.00109300   0.00210800
  0.00138738  -0.00083100  -0.00145230
  0.00309180   0.00023222   0.00216754
 -0.00276465   0.00023081   0.00218296
  0.00230392   0.00061776   0.00209693
  0.00326547   0.00132300  -0.00102307
[...]
POINT_DATA 639
SCALARS pressure double 1
LOOKUP_TABLE default
          0.00000000
          0.00000000
          0.00000000
          0.00000000
          0.00000000
          0.00000000
          0.00000000
          0.00000000
          0.00000000
          0.00000000
          0.00000000
          0.00000000
          0.00000000
          0.00000000
          0.00000000
          0.00000000
          0.00000000
          0.00000000
          0.00000000
          0.00000000
          0.00000000
          0.00000000
          0.00000000
          0.00000000
          0.00000000
          0.00000000
          0.00000000
          0.00000000
          0.00000000
          0.00000000
          0.00000000
          0.00000000
          0.00000000
          0.00000000
          0.00000000
          0.00000000
          0.00000000
          0.00000000
          0.00000000
          0.00000000
          0.00000000
          0.00000000
          0.00000000
          0.00000000
          0.00000000
          0.00000000
          0.00000000
          0.00000000
          0.00000000
          0.00000000
          0.00000000
          0.00000000
          0.00000000
          0.00000000
          0.00000000
          0.00000000
          0.00000000
          0.00000000
          0.00000000
          0.00000000
          0.00000000
          0.00000000
          0.00000000
          0.00000000
          0.00000000
          0.00000000
          0.00000000
          0.00000000
          0.00000000
          0.00000000
          0.00000000
          0.00000000
          0.00000000
          0.00000000
          0.00000000
          0.00000000
          0.00000000
          0.00000000
          0.00000000
          0.00000000
          0.00000000
          0.00000000
          0.00000000
          0.00000000
          0.00000000
          0.00000000
          0.00000000
          0.00000000
          0.00000000
          0.00000000
          0.00000000
          0.00000000
          0.00000000
          0.00000000
          0.00000000
          0.00000000
          0.00000000
          0.00000000
          0.00000000
          0.00000000
          0.00000000
          0.00000000
          0.00000000
          0.00000000
          0.00000000
          0.00000000
          0.00000000
          0.00000000
          0.00000000
          0.00000000
          0.00000000
          0.00000000
          0.00000000
          0.00000000
          0.00000000
          0.00000000
          0.00000000
          0.00000000
          0.00000000
          0.00000000
          0.00000000
          0.00000000
          0.00000000
          0.00000000
          0.00000000
          0.00000000
          0.00000000
          0.00000000
          0.00000000
          0.00000000
          0.00000000
          0.00000000
          0.00000000
          0.00000000
          0.00000000
          0.00000000
          0.00000000
          0.00000000
          0.00000000
          0.00000000
          0.00000000
          0.00000000
          0.00000000
          0.00000000
          0.00000000
          0.00000000
          0.00000000
          0.00000000
          0.00000000
          0.00000000
          0.00000000
          0.00000000
          0.00000000
          0.00000000
          0.00000000
          0.00000000
          0.00000000
          0.00000000
          0.00000000
          0.00000000
          0.00000000
          0.00000000
          0.00000000
          0.00000000
          0.00000000
          0.00000000
          0.00000000
          0.00000000
          0.00000000
          0.00000000
          0.00000000
          0.00000000
          0.00000000
          0.00000000
          0.00000000
          0.00000000
          0.00000000
          0.00000000
          0.00000000
          0.00000000
          0.00000000
          0.00000000
          0.00000000
          0.00000000
          0.00000000
          0.00000000
          0.00000000
          0.00000000
          0.00000000
          0.00000000
          0.00000000
          0.00000000
          0.00000000
          0.00000000
          0.00000000
          0.00000000
          0.00000000
          0.00000000
          0.00000000
          0.00000000
          0.00000000
          0.00000000
          0.00000000
          0.00000000
          0.00000000
          0.00000000
          0.00000000
          0.00000000
          0.00000000
          0.00000000
          0.00000000
          0.00000000
          0.00000000
          0.00000000
          0.00000000
          0.00000000
          0.00000000
          0.00000000
          0.00000000
          0.00000000
          0.00000000
          0.00000000
          0.00000000
          0.00000000
          0.00000000
          0.00000000
          0.00000000
          0.00000000
          0.00000000
          0.00000000
          0.00000000
          0.00000000
          0.00000000
          0.00000000
          0.00000000
          0.00000000
          0.00000000
          0.00000000
          0.00000000
          0.00000000
          0.00000000
          0.00000000
          0.00000000
          0.00000000
          0.00000000
          0.00000000
          0.00000000
          0.00000000
          0.00000000
          0.00000000
          0.00000000
          0.00000000
          0.00000000
          0.00000000
          0.00000000
          0.00000000
          0.00000000
          0.00000000
          0.00000000
          0.00000000
          0.00000000
          0.00000000
          0.00000000
          0.00000000
          0.00000000
          0.00000000
          0.00000000
          0.00000000
          0.00000000
   57099340.57308570
  108099340.57308576
   52145305.25914902
  111488908.67920116
  102884642.48375614
  105700502.65262641
   50951831.29411317
  103487074.21543583
  102924179.71132442
   70205923.68416792
  105526330.87831262
   47674700.62222531
   76882612.22825411
  105712462.37997468
  151893565.71063045
  208358956.23124877
   51972348.41721116
  103485867.36919685
  249839529.47200325
   52196619.57218781
   51918741.61952209
  102884642.48375614
  105594988.40436792
  103951014.62732877
  107878857.03504297
  336526135.82338077
   50497180.30735783
  180523978.61628366
  105535832.98516424
  128118333.58992504
  224634874.54951832
   50774006.39195678
   53671354.59883394
  105776001.06291063
  105401915.68857498
   51132085.74083016
  105726651.37484542
  103769899.68072312
   96758999.28801362
  102850418.26938336
  109368809.65365173
  104277206.56496477
  104880568.76703861
  490451287.28134310
  104381687.95466910
  151310651.59857336
   45758999.28801357
   51850418.26938309
  103499998.94387764
   53616337.78073832
   72281634.16402861
   51750000.00000014
  105776001.39768186
  105726651.37484546
   90546801.23667240
   50140989.89513732
  102884642.48375614
  105915180.35731027
  105817333.41797502
  151158531.69106889
   50987763.44463687
   65880831.01148315
  105535832.98516418
   99154681.63470858
  103485867.36919688
  104177040.36130820
  105622073.85024807
   50987146.50957110
  103060813.35793924
  105511249.40062079
   50681079.36388803
   41518907.18501952
  147896238.98658127
  105712462.37997462
   49912809.97699858
   49391341.59454438
  105673138.61417390
  105585696.33152241
  108127199.74849403
  105499998.92346950
   51088464.94072808
   52403248.00355452
  105715596.52756192
  105956811.68719169
  107331958.65952332
  102884642.48375614
   51585209.88676337
  101163042.02278697
  102749999.99999997
   55413217.04000141
   52234865.81125793
   57099340.57308570
   55923085.36902262
  111409683.16181818
  107888639.62582691
   52145305.25914901
  111391832.03770581
   93244998.74125129
  105996847.82240441
  103899700.31428996
  105752361.09114972
  102924179.71132439
  103577728.74436165
   50772540.78430323
  105897341.79855058
   50734991.71155977
   41443854.94635265
   41495528.58566746
  105999974.35547379
   93244998.74125129
  106050002.66610654
  106101684.77093624
   63514366.76174182
   63566040.40105661
  111419784.02172713
  148224492.83025977
   50616357.20909328
  148285871.24141991
  105845426.60341631
   51972348.41721116
  105775847.25975825
  105880195.06800112
   52196619.57218781
  103951014.62732877
  104461630.86556971
   50676371.55924986
  105967034.35944049
  105847561.51796915
  108280549.18104607
  111320629.17667420
  105900012.78063704
   51918741.61952208
  105936673.56379078
  105955347.67545724
  106004083.31588224
  147732160.84999964
   52526422.33022803
   51385267.39124056
   78515530.92968398
  189628210.26572612
  106013554.36132349
  328476216.58636153
   40485519.16210493
  217065705.34585071
  103780231.71118936
   36251610.42648860
  102366216.85652839
  104600418.26938337
  103900012.45794785
  252358185.73483944
   40630028.47571854
   62633576.11815587
   56239088.24516232
   75454546.98831381
  103999995.75520244
  103899385.47588427
  111619632.60915257
   36251610.42648860
   49616216.85652855
   51850418.26938309
  108902864.37195240
  105998243.09309272
  105840718.39485203
   40189213.73940907
   51350413.25833983
  105936372.14164276
  111320629.17667416
   50255601.20695526
  106050804.78631195
   62633576.11815587
  105943385.37418605
  105764897.60411966
  100731670.01652198
   48188780.77047434
   62633576.11815587
  105948588.22862810
  157545742.05115604
  106067935.78533857
  106042328.96386935
   50737601.87713967
   50677374.62387950
  105843544.32103112
  108401770.30082157
  105929339.09520446
  105906148.57172900
   52856231.89369446
  104375596.42076577
   52403248.00355452
  103339604.94190432
  106020461.68905130
  105986138.52573292
  103599813.63158445
  103984865.81125785
  111404697.30638079
   51681072.01206256
   55413217.04000141
   52234865.81125793
  108092174.74370645
  105876931.88414861
  105947127.32904214
  105724866.10677053
  112655550.14691755
  105770721.11613283
  208450292.07890549
  270256800.31370151
  105932670.66109970
  105910260.18562528
   94830391.15183386
  208548313.15312287
  205523352.95242330
  270109604.61955631
   51619127.80688868
   63537741.37049705
  147754084.34181455
  352991317.31881511
  105973663.66938715
  115243162.91605687
  106418677.84185550
  105544899.47715308
  105716189.54477911
  104375596.42076568
  111193552.17876424
  242001365.13344124
  103673965.77684222
  104177040.36130829
   63784955.47701116
   63759960.65081457
  111118875.61353640
  105317751.45304295
  108059160.73085380
   63610924.70182710
   94855824.49870630
  103573972.78115343
  103893644.27042621
  107974185.18989748
  202093308.68480399
   55815052.17553492
   54968304.64713366
   72819051.09347950
   72798796.11575070
  661647539.92543948
  105816718.04515254
   49891806.81059968
  105897831.08591262
   50531423.54094639
  111174514.44700302
   51918741.61952198
  105980860.64674541
  115428284.42016609
   56732464.77789520
   66594281.93712412
   37428200.15388546
  151359978.64539659
  519176929.70855743
   69935904.87635075
  252343655.72559756
   72761677.13635980
   72796964.13783522
   38279160.59458496
   55682689.33993036
  151639377.71760502
   55901366.45525166
  204539643.85674495
  193628959.99016902
  109963460.85025141
  561470431.72237182
  507897550.48701215
  287087945.81396407
  809435539.49234509
  809384480.20247996
   50422205.98722879
   78183511.26493055
  426321811.51616067
    3015321.82264267
  149295349.38550147
   83726451.34770554
  510348411.91854513
  513758456.48995334
  249647363.75085855
  773248806.57197785
  112028670.72943494
   47774295.76427968
  104155839.39068303
  721086530.13827682
  719049145.63813257
  724843730.44721639
  377956670.86097330
  150462432.04052269
  149516765.02949518
  205557553.47190344
  513195346.85545319
  246376276.18393385
  105277587.87771684
  727140594.86844587
  374334914.75854927
  149798644.97970453
  251257409.36168060
   73553018.29627666
  108640657.50264879
   76975174.07534495
  148728301.82024413
   45300399.92236099
  105823945.48348147
  104214152.19589610
  338139788.26586962
  104125055.45855813
  104047744.03098001
   50431313.20968351
   40160046.28543128
  105593055.98771811
  108230210.23860565
   49632750.78383358
  105482784.47918481
  105855614.56212625
   51918741.61952208
   49810756.86111845
   40172227.39275511
  105843544.32103103
  105778385.01072329
  147811022.49423176
  108246753.30955994
  105651112.48267131
  105618683.42819500
  421657596.97960150
  224497653.75520167
  224488394.63085768
  128124167.57494900
  105732840.07319739
  105825206.19308400
  365249038.24704772
  105684559.30217490
  105731830.79150754
  105733892.76648420
  458475980.66362923
   50688949.94368622
   59255772.82748094
  105923293.05653892
  102397907.83404487
  105647425.96993959
  105632800.40600292
  108363833.13762407
  105811051.36843260
  373619214.27293503
  105776069.45805165
   50311228.79625443
  105867395.03179342
   50440167.33204120
  188977055.21963999
  105621919.78282622
   50174477.19129875
   50510360.92621241
   50416964.55201717
  133020546.26626807
  105888578.98067029
  105948903.64090815
  105843856.92548561
  105696307.37662987
  103339604.94190432
  105919262.10060988
   33977267.24282269
   34086831.61907678
   34648232.27814075
   34058976.62715201
   34086831.61907678
   34500000.00000002
   34086831.61907677
   33977267.24282259
   34502930.03676070
   34502930.03676071
   34648232.27814075

