# vtk DataFile Version 3.0
pressure
ASCII

DATASET UNSTRUCTURED_GRID
POINTS 609 double
 -0.00150000  -0.00554600  -0.00008200
 -0.00150000  -0.00554600   0.00008200
 -0.00150000  -0.00549100  -0.00078700
 -0.00150000  -0.00549100   0.00078700
 -0.00150000  -0.00546500  -0.00094900
 -0.00150000  -0.00546500   0.00094900
 -0.00150000  -0.00530000  -0.00163600
 -0.00150000  -0.00530000   0.00163600
 -0.00150000  -0.00525000  -0.00179200
 -0.00150000  -0.00525000   0.00179200
 -0.00150000  -0.00502300  -0.00028400
 -0.00150000  -0.00502300   0.00028400
 -0.00150000  -0.00500600  -0.00050500
 -0.00150000  -0.00500600   0.00050500
 -0.00150000  -0.00497900  -0.00244500
 -0.00150000  -0.00497900   0.00244500
 -0.00150000  -0.00491700  -0.00106600
 -0.00150000  -0.00491700   0.00106600
 -0.00150000  -0.00490500  -0.00259100
 -0.00150000  -0.00490500   0.00259100
 -0.00150000  -0.00486500  -0.00128200
 -0.00150000  -0.00486500   0.00128200
 -0.00150000  -0.00468900  -0.00182200
 -0.00150000  -0.00468900   0.00182200
 -0.00150000  -0.00460500  -0.00202700
 -0.00150000  -0.00460500   0.00202700
 -0.00150000  -0.00453500  -0.00319400
 -0.00150000  -0.00453500   0.00319400
 -0.00150000  -0.00443900  -0.00332700
 -0.00150000  -0.00443900   0.00332700
 -0.00150000  -0.00434600  -0.00253400
 -0.00150000  -0.00434600   0.00253400
 -0.00150000  -0.00423100  -0.00272300
 -0.00150000  -0.00423100   0.00272300
 -0.00150000  -0.00398000  -0.00386400
 -0.00150000  -0.00398000   0.00386400
 -0.00150000  -0.00389700  -0.00318200
 -0.00150000  -0.00389700   0.00318200
 -0.00150000  -0.00386400  -0.00398000
 -0.00150000  -0.00386400   0.00398000
 -0.00150000  -0.00375300  -0.00335100
 -0.00150000  -0.00375300   0.00335100
 -0.00150000  -0.00335100  -0.00375300
 -0.00150000  -0.00335100   0.00375300
 -0.00150000  -0.00332700  -0.00443900
 -0.00150000  -0.00332700   0.00443900
 -0.00150000  -0.00319400  -0.00453500
 -0.00150000  -0.00319400   0.00453500
 -0.00150000  -0.00318200  -0.00389700
 -0.00150000  -0.00318200   0.00389700
 -0.00150000  -0.00272300  -0.00423100
 -0.00150000  -0.00272300   0.00423100
 -0.00150000  -0.00259100  -0.00490500
 -0.00150000  -0.00259100   0.00490500
 -0.00150000  -0.00253400  -0.00434600
 -0.00150000  -0.00253400   0.00434600
 -0.00150000  -0.00244500  -0.00497900
 -0.00150000  -0.00244500   0.00497900
 -0.00150000  -0.00202700  -0.00460500
 -0.00150000  -0.00202700   0.00460500
 -0.00150000  -0.00182200  -0.00468900
 -0.00150000  -0.00182200   0.00468900
 -0.00150000  -0.00179200  -0.00525000
 -0.00150000  -0.00179200   0.00525000
 -0.00150000  -0.00163600  -0.00530000
 -0.00150000  -0.00163600   0.00530000
 -0.00150000  -0.00128200  -0.00486500
 -0.00150000  -0.00128200   0.00486500
 -0.00150000  -0.00106600  -0.00491700
 -0.00150000  -0.00106600   0.00491700
 -0.00150000  -0.00094900  -0.00546500
 -0.00150000  -0.00094900   0.00546500
 -0.00150000  -0.00078700  -0.00549100
 -0.00150000  -0.00078700   0.00549100
 -0.00150000  -0.00050500  -0.00500600
 -0.00150000  -0.00050500   0.00500600
 -0.00150000  -0.00028400  -0.00502300
 -0.00150000  -0.00028400   0.00502300
 -0.00150000  -0.00008200  -0.00554600
 -0.00150000  -0.00008200   0.00554600
 -0.00150000   0.00008200  -0.00554600
 -0.00150000   0.00008200   0.00554600
 -0.00150000   0.00028400  -0.00502300
 -0.00150000   0.00028400   0.00502300
 -0.00150000   0.00050500  -0.00500600
 -0.00150000   0.00050500   0.00500600
 -0.00150000   0.00078700  -0.00549100
 -0.00150000   0.00078700   0.00549100
 -0.00150000   0.00094900  -0.00546500
 -0.00150000   0.00094900   0.00546500
 -0.00150000   0.00106600  -0.00491700
 -0.00150000   0.00106600   0.00491700
 -0.00150000   0.00128200  -0.00486500
 -0.00150000   0.00128200   0.00486500
 -0.00150000   0.00163600  -0.00530000
 -0.00150000   0.00163600   0.00530000
 -0.00150000   0.00179200  -0.00525000
 -0.00150000   0.00179200   0.00525000
 -0.00150000   0.00182200  -0.00468900
 -0.00150000   0.00182200   0.00468900
 -0.00150000   0.00202700  -0.00460500
 -0.00150000   0.00202700   0.00460500
 -0.00150000   0.00244500  -0.00497900
 -0.00150000   0.00244500   0.00497900
 -0.00150000   0.00253400  -0.00434600
 -0.00150000   0.00253400   0.00434600
 -0.00150000   0.00259100  -0.00490500
 -0.00150000   0.00259100   0.00490500
 -0.00150000   0.00272300  -0.00423100
 -0.00150000   0.00272300   0.00423100
 -0.00150000   0.00318200  -0.00389700
 -0.00150000   0.00318200   0.00389700
 -0.00150000   0.00319400  -0.00453500
 -0.00150000   0.00319400   0.00453500
 -0.00150000   0.00332700  -0.00443900
 -0.00150000   0.00332700   0.00443900
 -0.00150000   0.00335100  -0.00375300
 -0.00150000   0.00335100   0.00375300
 -0.00150000   0.00375300  -0.00335100
 -0.00150000   0.00375300   0.00335100
 -0.00150000   0.00386400  -0.00398000
 -0.00150000   0.00386400   0.00398000
 -0.00150000   0.00389700  -0.00318200
 -0.00150000   0.00389700   0.00318200
 -0.00150000   0.00398000  -0.00386400
 -0.00150000   0.00398000   0.00386400
 -0.00150000   0.00423100  -0.00272300
 -0.00150000   0.00423100   0.00272300
 -0.00150000   0.00434600  -0.00253400
 -0.00150000   0.00434600   0.00253400
 -0.00150000   0.00443900  -0.00332700
 -0.00150000   0.00443900   0.00332700
 -0.00150000   0.00453500  -0.00319400
 -0.00150000   0.00453500   0.00319400
 -0.00150000   0.00460500  -0.00202700
 -0.00150000   0.00460500   0.00202700
 -0.00150000   0.00468900  -0.00182200
 -0.00150000   0.00468900   0.00182200
 -0.00150000   0.00486500  -0.00128200
 -0.00150000   0.00486500   0.00128200
 -0.00150000   0.00490500  -0.00259100
 -0.00150000   0.00490500   0.00259100
 -0.00150000   0.00491700  -0.00106600
 -0.00150000   0.00491700   0.00106600
 -0.00150000   0.00497900  -0.00244500
 -0.00150000   0.00497900   0.00244500
 -0.00150000   0.00500600  -0.00050500
 -0.00150000   0.00500600   0.00050500
 -0.00150000   0.00502300  -0.00028400
 -0.00150000   0.00502300   0.00028400
 -0.00150000   0.00525000  -0.00179200
 -0.00150000   0.00525000   0.00179200
 -0.00150000   0.00530000  -0.00163600
 -0.00150000   0.00530000   0.00163600
 -0.00150000   0.00546500  -0.00094900
 -0.00150000   0.00546500   0.00094900
 -0.00150000   0.00549100  -0.00078700
 -0.00150000   0.00549100   0.00078700
 -0.00150000   0.00554600  -0.00008200
 -0.00150000   0.00554600   0.00008200
  0.00150000  -0.00554600  -0.00008200
  0.00150000  -0.00554600   0.00008200
  0.00150000  -0.00549100  -0.00078700
  0.00150000  -0.00549100   0.00078700
  0.00150000  -0.00546500  -0.00094900
  0.00150000  -0.00546500   0.00094900
  0.00150000  -0.00530000  -0.00163600
  0.00150000  -0.00530000   0.00163600
  0.00150000  -0.00525000  -0.00179200
  0.00150000  -0.00525000   0.00179200
  0.00150000  -0.00502300  -0.00028400
  0.00150000  -0.00502300   0.00028400
  0.00150000  -0.00500600  -0.00050500
  0.00150000  -0.00500600   0.00050500
  0.00150000  -0.00497900  -0.00244500
  0.00150000  -0.00497900   0.00244500
  0.00150000  -0.00491700  -0.00106600
  0.00150000  -0.00491700   0.00106600
  0.00150000  -0.00490500  -0.00259100
  0.00150000  -0.00490500   0.00259100
  0.00150000  -0.00486500  -0.00128200
  0.00150000  -0.00486500   0.00128200
  0.00150000  -0.00468900  -0.00182200
  0.00150000  -0.00468900   0.00182200
  0.00150000  -0.00460500  -0.00202700
  0.00150000  -0.00460500   0.00202700
  0.00150000  -0.00453500  -0.00319400
  0.00150000  -0.00453500   0.00319400
  0.00150000  -0.00443900  -0.00332700
  0.00150000  -0.00443900   0.00332700
  0.00150000  -0.00434600  -0.00253400
  0.00150000  -0.00434600   0.00253400
  0.00150000  -0.00423100  -0.00272300
  0.00150000  -0.00423100   0.00272300
  0.00150000  -0.00398000  -0.00386400
  0.00150000  -0.00398000   0.00386400
  0.00150000  -0.00389700  -0.00318200
  0.00150000  -0.00389700   0.00318200
  0.00150000  -0.00386400  -0.00398000
  0.00150000  -0.00386400   0.00398000
  0.00150000  -0.00375300  -0.00335100
  0.00150000  -0.00375300   0.00335100
  0.00150000  -0.00335100  -0.00375300
  0.00150000  -0.00335100   0.00375300
  0.00150000  -0.00332700  -0.00443900
  0.00150000  -0.00332700   0.00443900
  0.00150000  -0.00319400  -0.00453500
  0.00150000  -0.00319400   0.00453500
  0.00150000  -0.00318200  -0.00389700
  0.00150000  -0.00318200   0.00389700
  0.00150000  -0.00272300  -0.00423100
  0.00150000  -0.00272300   0.00423100
  0.00150000  -0.00259100  -0.00490500
  0.00150000  -0.00259100   0.00490500
  0.00150000  -0.00253400  -0.00434600
  0.00150000  -0.00253400   0.00434600
  0.00150000  -0.00244500  -0.00497900
  0.00150000  -0.00244500   0.00497900
  0.00150000  -0.00202700  -0.00460500
  0.00150000  -0.00202700   0.00460500
  0.00150000  -0.00182200  -0.00468900
  0.00150000  -0.00182200   0.00468900
  0.00150000  -0.00179200  -0.00525000
  0.00150000  -0.00179200   0.00525000
  0.00150000  -0.00163600  -0.00530000
  0.00150000  -0.00163600   0.00530000
  0.00150000  -0.00128200  -0.00486500
  0.00150000  -0.00128200   0.00486500
  0.00150000  -0.00106600  -0.00491700
  0.00150000  -0.00106600   0.00491700
  0.00150000  -0.00094900  -0.00546500
  0.00150000  -0.00094900   0.00546500
  0.00150000  -0.00078700  -0.00549100
  0.00150000  -0.00078700   0.00549100
  0.00150000  -0.00050500  -0.00500600
  0.00150000  -0.00050500   0.00500600
  0.00150000  -0.00028400  -0.00502300
  0.00150000  -0.00028400   0.00502300
  0.00150000  -0.00008200  -0.00554600
  0.00150000  -0.00008200   0.00554600
  0.00150000   0.00008200  -0.00554600
  0.00150000   0.00008200   0.00554600
  0.00150000   0.00028400  -0.00502300
  0.00150000   0.00028400   0.00502300
  0.00150000   0.00050500  -0.00500600
  0.00150000   0.00050500   0.00500600
  0.00150000   0.00078700  -0.00549100
  0.00150000   0.00078700   0.00549100
  0.00150000   0.00094900  -0.00546500
  0.00150000   0.00094900   0.00546500
  0.00150000   0.00106600  -0.00491700
  0.00150000   0.00106600   0.00491700
  0.00150000   0.00128200  -0.00486500
  0.00150000   0.00128200   0.00486500
[...]
POINT_DATA 609
SCALARS pressure double 1
LOOKUP_TABLE default
          0.00000000
          0.00000000
          0.00000000
          0.00000000
          0.00000000
          0.00000000
          0.00000000
          0.00000000
          0.00000000
          0.00000000
          0.00000000
          0.00000000
          0.00000000
          0.00000000
          0.00000000
          0.00000000
          0.00000000
          0.00000000
          0.00000000
          0.00000000
          0.00000000
          0.00000000
          0.00000000
          0.00000000
          0.00000000
          0.00000000
          0.00000000
          0.00000000
          0.00000000
          0.00000000
          0.00000000
          0.00000000
          0.00000000
          0.00000000
          0.00000000
          0.00000000
          0.00000000
          0.00000000
          0.00000000
          0.00000000
          0.00000000
          0.00000000
          0.00000000
          0.00000000
          0.00000000
          0.00000000
          0.00000000
          0.00000000
          0.00000000
          0.00000000
          0.00000000
          0.00000000
          0.00000000
          0.00000000
          0.00000000
          0.00000000
          0.00000000
          0.00000000
          0.00000000
          0.00000000
          0.00000000
          0.00000000
          0.00000000
          0.00000000
          0.00000000
          0.00000000
          0.00000000
          0.00000000
          0.00000000
          0.00000000
          0.00000000
          0.00000000
          0.00000000
          0.00000000
          0.00000000
          0.00000000
          0.00000000
          0.00000000
          0.00000000
          0.00000000
          0.00000000
          0.00000000
          0.00000000
          0.00000000
          0.00000000
          0.00000000
          0.00000000
          0.00000000
          0.00000000
          0.00000000
          0.00000000
          0.00000000
          0.00000000
          0.00000000
          0.00000000
          0.00000000
          0.00000000
          0.00000000
          0.00000000
          0.00000000
          0.00000000
          0.00000000
          0.00000000
          0.00000000
          0.00000000
          0.00000000
          0.00000000
          0.00000000
          0.00000000
          0.00000000
          0.00000000
          0.00000000
          0.00000000
          0.00000000
          0.00000000
          0.00000000
          0.00000000
          0.00000000
          0.00000000
          0.00000000
          0.00000000
          0.00000000
          0.00000000
          0.00000000
          0.00000000
          0.00000000
          0.00000000
          0.00000000
          0.00000000
          0.00000000
          0.00000000
          0.00000000
          0.00000000
          0.00000000
          0.00000000
          0.00000000
          0.00000000
          0.00000000
          0.00000000
          0.00000000
          0.00000000
          0.00000000
          0.00000000
          0.00000000
          0.00000000
          0.00000000
          0.00000000
          0.00000000
          0.00000000
          0.00000000
          0.00000000
          0.00000000
          0.00000000
          0.00000000
          0.00000000
          0.00000000
          0.00000000
          0.00000000
          0.00000000
          0.00000000
          0.00000000
          0.00000000
          0.00000000
          0.00000000
          0.00000000
          0.00000000
          0.00000000
          0.00000000
          0.00000000
          0.00000000
          0.00000000
          0.00000000
          0.00000000
          0.00000000
          0.00000000
          0.00000000
          0.00000000
          0.00000000
          0.00000000
          0.00000000
          0.00000000
          0.00000000
          0.00000000
          0.00000000
          0.00000000
          0.00000000
          0.00000000
          0.00000000
          0.00000000
          0.00000000
          0.00000000
          0.00000000
          0.00000000
          0.00000000
          0.00000000
          0.00000000
          0.00000000
          0.00000000
          0.00000000
          0.00000000
          0.00000000
          0.00000000
          0.00000000
          0.00000000
          0.00000000
          0.00000000
          0.00000000
          0.00000000
          0.00000000
          0.00000000
          0.00000000
          0.00000000
          0.00000000
          0.00000000
          0.00000000
          0.00000000
          0.00000000
          0.00000000
          0.00000000
          0.00000000
          0.00000000
          0.00000000
          0.00000000
          0.00000000
          0.00000000
          0.00000000
          0.00000000
          0.00000000
          0.00000000
          0.00000000
          0.00000000
          0.00000000
          0.00000000
          0.00000000
          0.00000000
          0.00000000
          0.00000000
          0.00000000
          0.00000000
          0.00000000
          0.00000000
          0.00000000
          0.00000000
          0.00000000
          0.00000000
          0.00000000
          0.00000000
          0.00000000
          0.00000000
          0.00000000
          0.00000000
          0.00000000
          0.00000000
          0.00000000
          0.00000000
          0.00000000
          0.00000000
          0.00000000
          0.00000000
          0.00000000
          0.00000000
          0.00000000
          0.00000000
          0.00000000
          0.00000000
          0.00000000
          0.00000000
          0.00000000
          0.00000000
          0.00000000
          0.00000000
          0.00000000
          0.00000000
          0.00000000
          0.00000000
          0.00000000
          0.00000000
          0.00000000
          0.00000000
          0.00000000
          0.00000000
          0.00000000
          0.00000000
          0.00000000
          0.00000000
          0.00000000
          0.00000000
          0.00000000
          0.00000000
          0.00000000
          0.00000000
          0.00000000
          0.00000000
          0.00000000
          0.00000000
          0.00000000
          0.00000000
          0.00000000
          0.00000000
          0.00000000
          0.00000000
          0.00000000
          0.00000000
          0.00000000
          0.00000000
          0.00000000
          0.00000000
          0.00000000
          0.00000000
          0.00000000
          0.00000000
          0.00000000
          0.00000000
          0.00000000
          0.00000000
          0.00000000
          0.00000000
          0.00000000
          0.00000000
          0.00000000
 1020194958.15350318
 1020194958.15350318
 1020194958.15350318
          0.00000000
          0.00000000
          0.00000000
          0.00000000
          0.00000000
          0.00000000
          0.00000000
          0.00000000
          0.00000000
          0.00000000
          0.00000000
          0.00000000
          0.00000000
          0.00000000
          0.00000000
          0.00000000
          0.00000000
          0.00000000
          0.00000000
          0.00000000
          0.00000000
          0.00000000
          0.00000000
          0.00000000
          0.00000000
          0.00000000
          0.00000000
          0.00000000
          0.00000000
          0.00000000
          0.00000000
  191231997.38439041
  191395229.50925422
  191384300.84949830
  662315698.25813115
  677628170.37066185
  412275157.35128558
  190941935.48898685
  190941935.48898691
  662143005.88168883
  153968221.51110727
  191250736.59705573
  662143005.88168883
  198068708.36983144
  191384300.84949827
  551614108.77532971
  662289004.26504028
  111873233.80350506
  662289004.26504028
  153980419.57022136
  663322566.83246529
  190978623.55362898
  190978623.55362922
  663322566.83246529
  413709009.96000087
  661918601.74078751
  661918601.74078727
  190978623.55362904
  661918601.74078751
  190978623.55362904
  661918601.74078751
  662368620.29975629
  191222935.22505429
  190941935.48898691
  522578343.42835051
  663322566.83246553
  679288526.74257374
  414736596.78347397
  190696251.97353196
  191384300.84949830
  412011578.19249713
  662289004.26504004
  155083235.75757492
  662289004.26504004
  190696251.97353196
  111643454.33803058
  196334880.94903710
  191395229.50925422
  191250736.59705567
  191250736.59705576
  412087851.05454910
  522578343.42835051
  549057430.96692502
  662143005.88168883
  677812026.90899050
  811196069.08564317
  662315698.25813127
  191231997.38439041
  191231997.38439041
  662315698.25813127
  155693892.73601511
  111873233.80350502
  153980419.57022136
  198068708.36983144
  153968221.51110727
  700361101.58217716
  662143005.88168883
  191250736.59705573
  662143005.88168883
  191250736.59705573
  411962744.62108356
  662289004.26504004
  191384300.84949827
  662289004.26504004
  191384300.84949830
  415448217.98576367
  663322566.83246529
  482065447.18813527
  190624883.35431537
  190624883.35431513
  661918601.74078751
  412771321.92300975
  661918601.74078751
  412771321.92300981
  191614772.92456582
  190978623.55362898
  662858446.08845985
  662858446.08845997
  191272586.43348619
  191614772.92456582
  661918601.74078751
  614115169.40718949
  413025166.52128738
  191272586.43348587
  661918601.74078751
  411564274.61287582
  413709009.96000099
  811196069.08564317
  510097479.07675159
  663322566.83246434
  551754304.46893847
  190978623.55362904
  510097479.07675159
  197978040.18696856
  662289004.26504004
  412011578.19249725
  677812026.90899062
  662289004.26504004
  412011578.19249725
  190624883.35431504
  190624883.35431513
  662143005.88168883
  191250736.59705573
  510097479.07675159
  412646528.43975687
  111593405.87729089
  510097479.07675159
  662315698.25813127
  191384300.84949827
  191384300.84949827
  191250736.59705573
  191231997.38439041
  191231997.38439041
  662315698.25813127
 3750000000.00000000
  412275157.35128558
  811854551.32061732
  190624883.35431537
  190978623.55362898
  190978623.55362922
  661024353.07876432
  661918601.74078751
  661918601.74078727
  190978623.55362904
  661918601.74078751
 3436035786.93973589
  412624824.11883849
  197309930.67170149
 3750000000.00000000
 1263453009.52634048
  510097479.07675159
  191222935.22505429
  190941935.48898691
  510097479.07675159
  663322566.83246553
  662289004.26504004
  411962744.62108356
  190696251.97353196
  191250736.59705576
 3104708119.78751612
  412087851.05454910
  662143005.88168883
  510097479.07675159
  677812026.90899050
  155693892.73601511
 3104708119.78751564
  153980419.57022136
  198068708.36983144
  415448217.98576403
 3283418644.71297121
  663322473.24058723
  190941935.48898688
  190871636.68614727
 3394357069.01137304
  663322566.83246529
 3436035786.93973589
 3749999999.99999905
  412771321.92300975
  661918601.74078751
 3750000000.00000000
  190978623.55362898
  662858446.08845985
  191272586.43348682
 3750000000.00000000
  700577204.79790092
  676938904.84057820
  661918601.74078751
  413025166.52128738
 3750000000.00000000
  411564274.61287582
  413709009.96000099
  758450174.39689994
  811196069.08564317
  663322566.83246434
  190978623.55362904
  197978040.18696854
 3750000000.00000000
  550222966.16917109
  197978040.18696856
  663322566.83246553
  155870854.42025208
  757976097.99341261
  155870854.42025208
  190624883.35431504
  412646528.43975687
  676991753.71908283
  412646528.43975681
  190941935.48898691
  412275157.35128558
  662143005.88168883
  662315698.25813115
  191250736.59705573
  191231997.38439032
  660997317.53716850
 2481670668.97114229
 1875000000.00000000
 1285481629.54342365
 1249611573.64842558
 2486546990.47365952
  878578981.01969731
 3239902520.92324829
  510097479.07675159
 1988681819.55354881
 1613444205.98436069
  522578343.42835051
 3177343584.42150116
 2007910869.35132408
  668271472.26402390
 1423108390.65524364
 1083676504.88484406
  660997317.53716850
  660997317.53716850
  110908796.77693331
  663322566.83246529
  663322566.83246529
  676991753.71908283
  197978040.18696842
  663322566.83246434
  663452661.49897039
  676991753.71908247
  676991753.71908259
  197978040.18696842
  662289004.26504028
  411962744.62108356
  411962744.62108356
  662315698.25813115
  412646528.43975681
  811196069.08564317
  551754304.46893847
  127596819.67283599
  127596819.67283599
  127589533.89966555
  127589533.89966556
  127515057.62232414
  127589533.89966606
  127487998.25626025
  127596819.67283599
  127596819.67283599
  127589533.89966556
  127589533.89966555
  127515057.62232353
  127515057.62232414
  127743181.94971018
  127596819.67283599
  127589533.89966555
  127515057.62232348

