# vtk DataFile Version 3.0
pressure
ASCII

DATASET UNSTRUCTURED_GRID
POINTS 1591 double
 -0.00600000  -0.00454907  -0.00155322
 -0.00600000  -0.00450141  -0.00003026
 -0.00600000  -0.00428000   0.00139100
 -0.00600000  -0.00413200  -0.00300200
 -0.00600000  -0.00364100   0.00264500
 -0.00600000  -0.00318100  -0.00437800
 -0.00600000  -0.00278400  -0.00467800
 -0.00600000  -0.00264500   0.00364100
 -0.00600000  -0.00170000  -0.00523100
 -0.00600000  -0.00139100   0.00428000
 -0.00600000  -0.00000000  -0.00550000
 -0.00600000   0.00000000   0.00450000
 -0.00600000   0.00139100   0.00428000
 -0.00600000   0.00166264  -0.00523691
 -0.00600000   0.00227800   0.00382800
 -0.00600000   0.00269700   0.00371300
 -0.00600000   0.00323300  -0.00445000
 -0.00600000   0.00395800   0.00287600
 -0.00600000   0.00445000  -0.00323300
 -0.00600000   0.00494200   0.00160600
 -0.00600000   0.00523100  -0.00170000
 -0.00600000   0.00550000  -0.00000000
 -0.00594400  -0.00170000  -0.00523100
 -0.00594267   0.00136732   0.00428374
 -0.00592100  -0.00428000  -0.00139100
 -0.00592100   0.00523100   0.00170000
 -0.00586600  -0.00000000  -0.00550000
 -0.00586600   0.00000000   0.00450000
 -0.00584300  -0.00364100  -0.00264500
 -0.00584388   0.00445882   0.00321569
 -0.00578700  -0.00139100   0.00428000
 -0.00578700   0.00170000  -0.00523100
 -0.00576400  -0.00264500  -0.00364100
 -0.00576400   0.00323300   0.00445000
 -0.00570900  -0.00264500   0.00364100
 -0.00570900   0.00323300  -0.00445000
 -0.00568600  -0.00139100  -0.00428000
 -0.00568600   0.00170000   0.00523100
 -0.00563000  -0.00364100   0.00264500
 -0.00563000   0.00445000  -0.00323300
 -0.00560700  -0.00000000  -0.00450000
 -0.00560700   0.00000000   0.00550000
 -0.00555200  -0.00428000   0.00139100
 -0.00555200   0.00523100  -0.00170000
 -0.00552900  -0.00170000   0.00523100
 -0.00552900   0.00139100  -0.00428000
 -0.00547300  -0.00450000   0.00000000
 -0.00547300   0.00550000  -0.00000000
 -0.00545000  -0.00323300   0.00445000
 -0.00545000   0.00264500  -0.00364100
 -0.00539500  -0.00428000  -0.00139100
 -0.00539500   0.00523100   0.00170000
 -0.00537200  -0.00445000   0.00323300
 -0.00537200   0.00364100  -0.00264500
 -0.00531600  -0.00364100  -0.00264500
 -0.00531600   0.00445000   0.00323300
 -0.00529300  -0.00523100   0.00170000
 -0.00529300   0.00428000  -0.00139100
 -0.00523800  -0.00264500  -0.00364100
 -0.00523800   0.00323300   0.00445000
 -0.00521500  -0.00550000   0.00000000
 -0.00521500   0.00450000  -0.00000000
 -0.00515900  -0.00139100  -0.00428000
 -0.00515900   0.00170000   0.00523100
 -0.00513600  -0.00523100  -0.00170000
 -0.00513600   0.00428000   0.00139100
 -0.00508100  -0.00000000  -0.00450000
 -0.00508100   0.00000000   0.00550000
 -0.00505800  -0.00445000  -0.00323300
 -0.00505800   0.00364100   0.00264500
 -0.00500200  -0.00170000   0.00523100
 -0.00500200   0.00139100  -0.00428000
 -0.00497900  -0.00323300  -0.00445000
 -0.00497900   0.00264500   0.00364100
 -0.00492300  -0.00323300   0.00445000
 -0.00492300   0.00264500  -0.00364100
 -0.00490000  -0.00170000  -0.00523100
 -0.00490000   0.00139100   0.00428000
 -0.00484500  -0.00445000   0.00323300
 -0.00484500   0.00364100  -0.00264500
 -0.00482200  -0.00000000  -0.00550000
 -0.00482200   0.00000000   0.00450000
 -0.00476600  -0.00523100   0.00170000
 -0.00476600   0.00428000  -0.00139100
 -0.00474300  -0.00139100   0.00428000
 -0.00474300   0.00170000  -0.00523100
 -0.00468800  -0.00550000   0.00000000
 -0.00468800   0.00450000  -0.00000000
 -0.00466500  -0.00264500   0.00364100
 -0.00466500   0.00323300  -0.00445000
 -0.00460900  -0.00523100  -0.00170000
 -0.00460900   0.00428000   0.00139100
 -0.00458600  -0.00364100   0.00264500
 -0.00458600   0.00445000  -0.00323300
 -0.00453100  -0.00445000  -0.00323300
 -0.00453100   0.00364100   0.00264500
 -0.00450800  -0.00428000   0.00139100
 -0.00450800   0.00523100  -0.00170000
 -0.00445200  -0.00323300  -0.00445000
 -0.00445200   0.00264500   0.00364100
 -0.00442900  -0.00450000   0.00000000
 -0.00442900   0.00550000  -0.00000000
 -0.00437400  -0.00170000  -0.00523100
 -0.00437400   0.00139100   0.00428000
 -0.00435100  -0.00428000  -0.00139100
 -0.00435100   0.00523100   0.00170000
 -0.00429500  -0.00000000  -0.00550000
 -0.00429500   0.00000000   0.00450000
 -0.00427200  -0.00364100  -0.00264500
 -0.00427200   0.00445000   0.00323300
 -0.00421700  -0.00139100   0.00428000
 -0.00421700   0.00170000  -0.00523100
 -0.00419400  -0.00264500  -0.00364100
 -0.00419400   0.00323300   0.00445000
 -0.00413800  -0.00264500   0.00364100
 -0.00413800   0.00323300  -0.00445000
 -0.00411500  -0.00139100  -0.00428000
 -0.00411500   0.00170000   0.00523100
 -0.00406000  -0.00364100   0.00264500
 -0.00406000   0.00445000  -0.00323300
 -0.00403700  -0.00000000  -0.00450000
 -0.00403700   0.00000000   0.00550000
 -0.00398100  -0.00428000   0.00139100
 -0.00398100   0.00523100  -0.00170000
 -0.00395800  -0.00170000   0.00523100
 -0.00395800   0.00139100  -0.00428000
 -0.00390200  -0.00450000   0.00000000
 -0.00390200   0.00550000  -0.00000000
 -0.00387900  -0.00323300   0.00445000
 -0.00387900   0.00264500  -0.00364100
 -0.00382400  -0.00428000  -0.00139100
 -0.00382400   0.00523100   0.00170000
 -0.00380100  -0.00445000   0.00323300
 -0.00380100   0.00364100  -0.00264500
 -0.00374500  -0.00364100  -0.00264500
 -0.00374500   0.00445000   0.00323300
 -0.00372200  -0.00523100   0.00170000
 -0.00372200   0.00428000  -0.00139100
 -0.00366700  -0.00264500  -0.00364100
 -0.00366700   0.00323300   0.00445000
 -0.00364400  -0.00550000   0.00000000
 -0.00364400   0.00450000  -0.00000000
 -0.00358800  -0.00139100  -0.00428000
 -0.00358800   0.00170000   0.00523100
 -0.00356500  -0.00523100  -0.00170000
 -0.00356500   0.00428000   0.00139100
 -0.00351000  -0.00000000  -0.00450000
 -0.00351000   0.00000000   0.00550000
 -0.00348700  -0.00445000  -0.00323300
 -0.00348700   0.00364100   0.00264500
 -0.00343100  -0.00170000   0.00523100
 -0.00343100   0.00139100  -0.00428000
 -0.00340755  -0.00322416  -0.00445450
 -0.00340800   0.00264500   0.00364100
 -0.00335300  -0.00323300   0.00445000
 -0.00335300   0.00264500  -0.00364100
 -0.00333000  -0.00170000  -0.00523100
 -0.00333000   0.00139100   0.00428000
 -0.00327400  -0.00445000   0.00323300
 -0.00327400   0.00364100  -0.00264500
 -0.00325100  -0.00000000  -0.00550000
 -0.00325100   0.00000000   0.00450000
 -0.00319600  -0.00523100   0.00170000
 -0.00319600   0.00428000  -0.00139100
 -0.00317300  -0.00139100   0.00428000
 -0.00317300   0.00170000  -0.00523100
 -0.00311700  -0.00550000   0.00000000
 -0.00311700   0.00450000  -0.00000000
 -0.00309400  -0.00264500   0.00364100
 -0.00309400   0.00323300  -0.00445000
 -0.00303800  -0.00523100  -0.00170000
 -0.00303800   0.00428000   0.00139100
 -0.00301500  -0.00364100   0.00264500
 -0.00301500   0.00445000  -0.00323300
 -0.00296000  -0.00445000  -0.00323300
 -0.00296000   0.00364100   0.00264500
 -0.00293700  -0.00428000   0.00139100
 -0.00293700   0.00523100  -0.00170000
 -0.00288100  -0.00323300  -0.00445000
 -0.00288100   0.00264500   0.00364100
 -0.00285800  -0.00450000   0.00000000
 -0.00285800   0.00550000  -0.00000000
 -0.00280300  -0.00170000  -0.00523100
 -0.00280300   0.00139100   0.00428000
 -0.00278000  -0.00428000  -0.00139100
 -0.00278000   0.00523100   0.00170000
 -0.00272400  -0.00000000  -0.00550000
 -0.00272400   0.00000000   0.00450000
 -0.00270100  -0.00364100  -0.00264500
 -0.00270100   0.00445000   0.00323300
 -0.00264600  -0.00139100   0.00428000
 -0.00264600   0.00170000  -0.00523100
 -0.00262300  -0.00264500  -0.00364100
 -0.00262300   0.00323300   0.00445000
 -0.00256811  -0.00259632   0.00367562
 -0.00256700   0.00323300  -0.00445000
 -0.00254400  -0.00139100  -0.00428000
 -0.00254400   0.00170000   0.00523100
 -0.00248900  -0.00364100   0.00264500
 -0.00248900   0.00445000  -0.00323300
 -0.00246600  -0.00000000  -0.00450000
 -0.00246600   0.00000000   0.00550000
 -0.00241000  -0.00428000   0.00139100
 -0.00241000   0.00523100  -0.00170000
 -0.00238700  -0.00170000   0.00523100
 -0.00238700   0.00139100  -0.00428000
 -0.00233200  -0.00450000   0.00000000
 -0.00233200   0.00550000  -0.00000000
 -0.00230900  -0.00323300   0.00445000
 -0.00230900   0.00264500  -0.00364100
 -0.00225300  -0.00428000  -0.00139100
 -0.00225300   0.00523100   0.00170000
 -0.00223000  -0.00445000   0.00323300
 -0.00223000   0.00364100  -0.00264500
 -0.00217500  -0.00364100  -0.00264500
 -0.00217500   0.00445000   0.00323300
 -0.00215200  -0.00523100   0.00170000
 -0.00215200   0.00428000  -0.00139100
 -0.00209600  -0.00264500  -0.00364100
 -0.00209600   0.00323300   0.00445000
 -0.00207300  -0.00550000   0.00000000
 -0.00207300   0.00450000  -0.00000000
 -0.00201700  -0.00139100  -0.00428000
 -0.00201700   0.00170000   0.00523100
 -0.00199400  -0.00523100  -0.00170000
 -0.00199400   0.00428000   0.00139100
 -0.00193900  -0.00000000  -0.00450000
 -0.00193900   0.00000000   0.00550000
 -0.00191600  -0.00445000  -0.00323300
 -0.00191600   0.00364100   0.00264500
 -0.00186000  -0.00170000   0.00523100
 -0.00186000   0.00139100  -0.00428000
 -0.00183700  -0.00323300  -0.00445000
 -0.00183700   0.00264500   0.00364100
 -0.00178200  -0.00323300   0.00445000
 -0.00178200   0.00264500  -0.00364100
 -0.00175900  -0.00170000  -0.00523100
 -0.00175900   0.00139100   0.00428000
 -0.00170300  -0.00445000   0.00323300
 -0.00170300   0.00364100  -0.00264500
 -0.00168000  -0.00000000  -0.00550000
 -0.00168000   0.00000000   0.00450000
 -0.00162500  -0.00523100   0.00170000
 -0.00162500   0.00428000  -0.00139100
 -0.00160200  -0.00139100   0.00428000
 -0.00160200   0.00170000  -0.00523100
 -0.00154600  -0.00550000   0.00000000
 -0.00154600   0.00450000  -0.00000000
 -0.00152156  -0.00266334   0.00362266
 -0.00152300   0.00323300  -0.00445000
 -0.00146800  -0.00523100  -0.00170000
 -0.00146800   0.00428000   0.00139100
 -0.00144500  -0.00364100   0.00264500
 -0.00144500   0.00445000  -0.00323300
[...]
POINT_DATA 1591
SCALARS pressure double 1
LOOKUP_TABLE default
          0.00000000
          0.00000000
          0.00000000
          0.00000000
          0.00000000
          0.00000000
          0.00000000
          0.00000000
          0.00000000
          0.00000000
          0.00000000
          0.00000000
          0.00000000
          0.00000000
          0.00000000
          0.00000000
          0.00000000
          0.00000000
          0.00000000
          0.00000000
          0.00000000
          0.00000000
          0.00000000
          0.00000000
          0.00000000
          0.00000000
          0.00000000
          0.00000000
          0.00000000
          0.00000000
          0.00000000
          0.00000000
          0.00000000
          0.00000000
          0.00000000
          0.00000000
          0.00000000
          0.00000000
          0.00000000
          0.00000000
          0.00000000
          0.00000000
          0.00000000
          0.00000000
          0.00000000
          0.00000000
          0.00000000
          0.00000000
          0.00000000
          0.00000000
          0.00000000
          0.00000000
          0.00000000
          0.00000000
          0.00000000
          0.00000000
          0.00000000
          0.00000000
          0.00000000
          0.00000000
          0.00000000
          0.00000000
          0.00000000
          0.00000000
          0.00000000
          0.00000000
          0.00000000
          0.00000000
          0.00000000
          0.00000000
          0.00000000
          0.00000000
          0.00000000
          0.00000000
          0.00000000
          0.00000000
          0.00000000
          0.00000000
          0.00000000
          0.00000000
          0.00000000
          0.00000000
          0.00000000
          0.00000000
          0.00000000
          0.00000000
          0.00000000
          0.00000000
          0.00000000
          0.00000000
          0.00000000
          0.00000000
          0.00000000
          0.00000000
          0.00000000
          0.00000000
          0.00000000
          0.00000000
          0.00000000
          0.00000000
          0.00000000
          0.00000000
          0.00000000
          0.00000000
          0.00000000
          0.00000000
          0.00000000
          0.00000000
          0.00000000
          0.00000000
          0.00000000
          0.00000000
          0.00000000
          0.00000000
          0.00000000
          0.00000000
          0.00000000
          0.00000000
          0.00000000
          0.00000000
          0.00000000
          0.00000000
          0.00000000
          0.00000000
          0.00000000
          0.00000000
          0.00000000
          0.00000000
          0.00000000
          0.00000000
          0.00000000
          0.00000000
          0.00000000
          0.00000000
          0.00000000
          0.00000000
          0.00000000
          0.00000000
          0.00000000
          0.00000000
          0.00000000
          0.00000000
          0.00000000
          0.00000000
          0.00000000
          0.00000000
          0.00000000
          0.00000000
          0.00000000
          0.00000000
          0.00000000
          0.00000000
          0.00000000
          0.00000000
          0.00000000
          0.00000000
          0.00000000
          0.00000000
          0.00000000
          0.00000000
          0.00000000
          0.00000000
          0.00000000
          0.00000000
          0.00000000
          0.00000000
          0.00000000
          0.00000000
          0.00000000
          0.00000000
          0.00000000
          0.00000000
          0.00000000
          0.00000000
          0.00000000
          0.00000000
          0.00000000
          0.00000000
          0.00000000
          0.00000000
          0.00000000
          0.00000000
          0.00000000
          0.00000000
          0.00000000
          0.00000000
          0.00000000
          0.00000000
          0.00000000
          0.00000000
          0.00000000
          0.00000000
          0.00000000
          0.00000000
          0.00000000
          0.00000000
          0.00000000
          0.00000000
          0.00000000
          0.00000000
          0.00000000
          0.00000000
          0.00000000
          0.00000000
          0.00000000
          0.00000000
          0.00000000
          0.00000000
          0.00000000
          0.00000000
          0.00000000
          0.00000000
          0.00000000
          0.00000000
          0.00000000
          0.00000000
          0.00000000
          0.00000000
          0.00000000
          0.00000000
          0.00000000
          0.00000000
          0.00000000
          0.00000000
          0.00000000
          0.00000000
          0.00000000
          0.00000000
          0.00000000
          0.00000000
          0.00000000
          0.00000000
          0.00000000
          0.00000000
          0.00000000
          0.00000000
          0.00000000
          0.00000000
          0.00000000
          0.00000000
          0.00000000
          0.00000000
          0.00000000
          0.00000000
          0.00000000
          0.00000000
          0.00000000
          0.00000000
          0.00000000
          0.00000000
          0.00000000
          0.00000000
          0.00000000
          0.00000000
          0.00000000
          0.00000000
          0.00000000
          0.00000000
          0.00000000
          0.00000000
          0.00000000
          0.00000000
          0.00000000
          0.00000000
          0.00000000
          0.00000000
          0.00000000
          0.00000000
          0.00000000
          0.00000000
          0.00000000
          0.00000000
          0.00000000
          0.00000000
          0.00000000
          0.00000000
          0.00000000
          0.00000000
          0.00000000
          0.00000000
          0.00000000
          0.00000000
          0.00000000
          0.00000000
          0.00000000
          0.00000000
          0.00000000
          0.00000000
          0.00000000
          0.00000000
          0.00000000
          0.00000000
          0.00000000
          0.00000000
          0.00000000
          0.00000000
          0.00000000
          0.00000000
          0.00000000
          0.00000000
          0.00000000
          0.00000000
          0.00000000
          0.00000000
          0.00000000
          0.00000000
          0.00000000
          0.00000000
          0.00000000
          0.00000000
          0.00000000
          0.00000000
          0.00000000
          0.00000000
          0.00000000
          0.00000000
          0.00000000
          0.00000000
          0.00000000
          0.00000000
          0.00000000
          0.00000000
          0.00000000
          0.00000000
          0.00000000
          0.00000000
          0.00000000
          0.00000000
          0.00000000
          0.00000000
          0.00000000
          0.00000000
          0.00000000
          0.00000000
          0.00000000
          0.00000000
          0.00000000
          0.00000000
          0.00000000
          0.00000000
          0.00000000
          0.00000000
          0.00000000
          0.00000000
          0.00000000
          0.00000000
          0.00000000
          0.00000000
          0.00000000
          0.00000000
          0.00000000
          0.00000000
          0.00000000
          0.00000000
          0.00000000
          0.00000000
          0.00000000
          0.00000000
          0.00000000
          0.00000000
          0.00000000
          0.00000000
          0.00000000
          0.00000000
          0.00000000
          0.00000000
          0.00000000
          0.00000000
          0.00000000
          0.00000000
          0.00000000
          0.00000000
          0.00000000
          0.00000000
          0.00000000
          0.00000000
          0.00000000
          0.00000000
          0.00000000
          0.00000000
          0.00000000
          0.00000000
          0.00000000
          0.00000000
          0.00000000
          0.00000000
          0.00000000
          0.00000000
          0.00000000
          0.00000000
          0.00000000
          0.00000000
          0.00000000
          0.00000000
          0.00000000
          0.00000000
          0.00000000
          0.00000000
          0.00000000
          0.00000000
          0.00000000
          0.00000000
          0.00000000
          0.00000000
          0.00000000
          0.00000000
          0.00000000
          0.00000000
          0.00000000
          0.00000000
          0.00000000
          0.00000000
          0.00000000
          0.00000000
          0.00000000
          0.00000000
          0.00000000
          0.00000000
          0.00000000
          0.00000000
          0.00000000
          0.00000000
          0.00000000
          0.00000000
          0.00000000
          0.00000000
          0.00000000
          0.00000000
          0.00000000
          0.00000000
          0.00000000
          0.00000000
          0.00000000
          0.00000000
          0.00000000
          0.00000000
          0.00000000
          0.00000000
          0.00000000
          0.00000000
          0.00000000
          0.00000000
          0.00000000
          0.00000000
          0.00000000
          0.00000000
          0.00000000
          0.00000000
          0.00000000
          0.00000000
          0.00000000
          0.00000000
          0.00000000
          0.00000000
          0.00000000
          0.00000000
          0.00000000
          0.00000000
          0.00000000
          0.00000000
          0.00000000
          0.00000000
          0.00000000
          0.00000000
          0.00000000
          0.00000000
          0.00000000
          0.00000000
          0.00000000
          0.00000000
          0.00000000
          0.00000000
          0.00000000
          0.00000000
          0.00000000
          0.00000000
          0.00000000
          0.00000000
          0.00000000
          0.00000000
          0.00000000
          0.00000000
          0.00000000
          0.00000000
          0.00000000
          0.00000000
          0.00000000
          0.00000000
          0.00000000
          0.00000000
          0.00000000
          0.00000000
          0.00000000
          0.00000000
          0.00000000
          0.00000000
          0.00000000
          0.00000000
          0.00000000
          0.00000000
          0.00000000
          0.00000000
          0.00000000
          0.00000000
          0.00000000
          0.00000000
          0.00000000
          0.00000000
          0.00000000
          0.00000000
          0.00000000
          0.00000000
          0.00000000
          0.00000000
          0.00000000
          0.00000000
          0.00000000
          0.00000000
          0.00000000
          0.00000000
          0.00000000
          0.00000000
          0.00000000
          0.00000000
          0.00000000
          0.00000000
          0.00000000
          0.00000000
          0.00000000
          0.00000000
          0.00000000
          0.00000000
          0.00000000
          0.00000000
          0.00000000
          0.00000000
          0.00000000
          0.00000000
          0.00000000
          0.00000000
          0.00000000
          0.00000000
          0.00000000
          0.00000000
          0.00000000
          0.00000000
          0.00000000
          0.00000000
          0.00000000
          0.00000000
          0.00000000
          0.00000000
          0.00000000
          0.00000000
          0.00000000
          0.00000000
          0.00000000
          0.00000000
          0.00000000
          0.00000000
          0.00000000
          0.00000000
          0.00000000
          0.00000000
          0.00000000
          0.00000000
          0.00000000
          0.00000000
          0.00000000
          0.00000000
          0.00000000
          0.00000000
          0.00000000
          0.00000000
          0.00000000
          0.00000000
          0.00000000
          0.00000000
          0.00000000
          0.00000000
          0.00000000
          0.00000000
          0.00000000
          0.00000000
          0.00000000
          0.00000000
          0.00000000
          0.00000000
          0.00000000
          0.00000000
          0.00000000
          0.00000000
          0.00000000
          0.00000000
          0.00000000
          0.00000000
          0.00000000
          0.00000000
          0.00000000
          0.00000000
          0.00000000
          0.00000000
          0.00000000
          0.00000000
          0.00000000
          0.00000000
          0.00000000
          0.00000000
          0.00000000
          0.00000000
          0.00000000
          0.00000000
          0.00000000
          0.00000000
          0.00000000
          0.00000000
          0.00000000
          0.00000000
          0.00000000
          0.00000000
          0.00000000
          0.00000000
          0.00000000
          0.00000000
          0.00000000
          0.00000000
          0.00000000
          0.00000000
          0.00000000
          0.00000000
          0.00000000
          0.00000000
          0.00000000
          0.00000000
          0.00000000
          0.00000000
          0.00000000
          0.00000000
          0.00000000
          0.00000000
          0.00000000
          0.00000000
          0.00000000
          0.00000000
          0.00000000
          0.00000000
          0.00000000
          0.00000000
          0.00000000
          0.00000000
 2280941029.72190094
          0.00000000
          0.00000000
          0.00000000
          0.00000000
          0.00000000
          0.00000000
          0.00000000
          0.00000000
          0.00000000
          0.00000000
          0.00000000
          0.00000000
  179070600.84040222
   67537744.01482129
  162186500.23485506
  161428448.83633861
  255641174.05690864
  254151978.42560348
  981250000.00000107
  636155825.12041378
 1080000000.00000024
 1177500000.00000000
 1257740466.39720392
 1261736827.79498339
 1202320837.10876870
  369171238.65733868
  350891729.62613457
  642702400.12721074
  633265723.85227048
 1013295715.02192450
 1013295715.02192426
 1004181141.07333159
  447723562.29263467
  445881017.51466668
  375174795.45128703
  375174795.45128596
  823641958.68037379
  823641958.68037438
  542241261.95742977
  539693858.71269548
  637696991.90220499
  635074447.59692371
  635065109.26248515
 1258079647.19172025
 1258079647.19171786
   98749999.99999902
  637699103.74052620
  634259481.46908402
 1258872430.90061188
  196250000.00000113
  635066057.34824264
 1257677571.57323098
 1257677571.57322979
  295000000.00000012
  636649063.76797962
  633671657.64229536
  634224542.97569692
  637703859.85440242
  635470458.71465373
 1258081525.37298965
 1258882654.45559764
  392500000.00000006
  635594415.26231766
 1257705723.53337693
 1257705723.53337765
  462500000.00000066
  491250000.00000119
  635458735.54963493
 1258081525.37298918
 1258081525.37298942
  560000000.00000060
  637699103.74052513
  588749999.99999893
  635074447.59692371
 1257696273.02341652
 1257696273.02341557
  658749999.99999952
  635594415.26231647
  687500000.00000012
  637696991.90220296
 1258079647.19171882
 1257679438.60725951
  756250000.00000167
  785000000.00000012
  635079179.00061738
 1257679438.60725927
 1257690063.32773995
 1258107519.69002962
  855000000.00000072
  637703859.85440111
  635066057.34824347
  543588338.03715825
  883749999.99999905
  637703560.34653497
  635433346.37871242
  634227590.50323296
 1258809134.00261378
 1263163084.28536057
  952500000.00000072
  981250000.00000107
  633698741.91976190
 1257759480.16013455
 1051249999.99999964
  637699103.74052703
  635065109.26248503
  636490870.71852291
 1257759480.16013575
 1257696273.02341604
 1148749999.99999952
  637696991.90220368
  634254828.52566230
 1257677571.57323098
 1257677571.57322979
 1257690063.32774019
 1247499999.99999857
  543622409.76046872
 1257690063.32774115
 1257787508.79519773
 1346249999.99999976
 1257787508.79519749
  637696991.90220368
  635074447.59692264
  635589501.60299790
 1257679438.60725880
 1257679438.60726047
 1542499999.99999881
  651736239.97342086
  635465297.97377586
 1263177698.09793377
 1258872430.90061164
  637696763.89161861
  634868451.50739264
  635591391.25821888
 1257677571.57323027
 1257677571.57323122
 1767500000.00000024
  636495324.52978230
  633712863.62669861
  651762229.97842896
  634876356.61119723
 1263176228.17138720
 1257705723.53337789
 1865000000.00000024
  637703859.85440278
  637859423.20480096
 1257705723.53337908
 1258882654.45559835
 1963749999.99999928
  635596056.36355817
  635458735.54963386
 1263176228.17138600
 1258859430.57650518
 1923164281.50985932
  635596056.36355770
 1257696273.02341557
 1257696273.02341676
 1263177698.09793258
 1923164281.50985932
 1257679438.60725880
 2098810468.89769745
  635470458.71465409
  637703859.85440230
  634264632.41728365
 1257679438.60725999
 1258869298.04015255
 1257705723.53337860
 2356250000.00000143
  651762229.97843051
  635591391.25821829
 1258894747.29644585
 1257690063.32774091
 2425000000.00000095
  846623154.75381351
 2453749999.99999952
  633657473.80030572
 1257677571.57323027
 2523750000.00000000
  850394825.47973716
  635589501.60299957
 2552500000.00000048
  636644642.76630008
  635074447.59692407
 1257677571.57323122
 1257696273.02341676
 2353822217.11058712
 2651249999.99999952
  637696991.90220344
 1258079647.19172001
 1257679438.60725951
 2188396012.15991259
  637703560.34653544
  634876356.61119771
  419737186.34805363
  543588338.03715849
 2748749999.99999952
  637859698.77581525
  635079179.00061893
 1257679438.60726023
 1258107519.69003057
 2188396012.15991259
  419737186.34805328
 1087176676.07431793
  543588338.03715849
 2847500000.00000048
  637579050.84005117
  635463716.53942502
 1258107519.69003081
 1258107519.69003153
 2334469692.64878893
  635065109.26248658
 1257679438.60725880
 1257679438.60726047
 2798194648.68699169
  637699103.74052656
  635065109.26248658
  637699103.74052680
 1258079647.19171882
 1257696273.02341604
 3112499999.99999857
 1087176676.07431793
  637852877.78931713
  635066057.34824312
 1257677571.57323027
 1257677571.57323122
 3211250000.00000000
  543600605.66132677
  637703859.85440278
  635440146.18811464
 1258081525.37298942
 1258822604.59277296
  637859698.77581525
 1257705723.53337789
  637696991.90220344
  635074447.59692430
 2480453494.34687328
 1696949575.89312720
 1406534184.93008399
 1257772030.71054554
 1257677571.57323027
 2213003397.05671406
 1264232010.15776563
 3505000000.00000095
  637699103.74052656
  635465297.97377658
 1257677571.57323122
 1258872430.90061188
  635066057.34824312
 1257677571.57323027
 1257677571.57323027
  636649063.76797891
  633671657.64229536
  637703859.85440278
 1257772030.71054602
 1257705723.53337789
 2547206470.66806555
  637703859.85440242
  635066057.34824312
  635071392.11763883
 1257705723.53337860
 1257705723.53337789
 2032315607.09185767
  634259481.46908200
  637696763.89161932
 1258081525.37298965
 1257677571.57323027
 1862644612.42792749
  635074447.59692430
 1257677571.57323027
 1257696273.02341604
 1862644612.42792797
  636488533.24728608
  633705065.28136671
  637696991.90220344
 1258079647.19171929
 1257693562.34324980
 1258518745.49892926
 2054474237.77789998
 1250639305.88139772
 2589224968.49663448
  637703859.85440159
  635066057.34824240
  635463716.53942525
 1257910703.45753813
 1258107519.69003057
 3131768348.18480587
  637852877.78931665
  635065109.26248658
 1404955552.12335062
 1257679438.60725927
 1257679438.60725951
 2546209583.78780508
  637699103.74052560
  635065109.26248598
  621581901.93378544
  637699103.74052680
  635434982.20740139
 1258079647.19171882
 2029316026.59981608