# vtk DataFile Version 3.0
pressure
ASCII

DATASET UNSTRUCTURED_GRID
POINTS 1355 double
  0.05000000   0.05000000   0.05000000
  0.05000000  -0.05000000   0.05000000
 -0.05000000   0.05000000   0.05000000
 -0.05000000  -0.05000000  -0.05000000
 -0.05000000   0.05000000  -0.05000000
 -0.05000000  -0.05000000   0.05000000
  0.05000000  -0.05000000  -0.05000000
  0.05000000   0.05000000  -0.05000000
  0.00449165  -0.03094441  -0.00880911
  0.00889248  -0.02659266  -0.00934931
  0.00558449  -0.02954406  -0.01133759
  0.00401883  -0.03027781  -0.01316575
  0.00191628  -0.03077080  -0.01400545
 -0.00350123  -0.03104179  -0.01258109
 -0.00230909  -0.03273778  -0.00979087
 -0.00226659  -0.02996837  -0.01528585
  0.00074405  -0.03017861  -0.01509446
 -0.00434937  -0.03049247  -0.00750313
 -0.00361736  -0.03142498  -0.01091679
 -0.00606590  -0.02801587  -0.01248307
 -0.00906343  -0.02762967  -0.00748248
 -0.00690184  -0.02846623  -0.00699222
 -0.00788645  -0.02937264  -0.00588762
 -0.01052334  -0.03124599  -0.00413744
 -0.01282561  -0.03142228  -0.00219179
 -0.01256674  -0.02953222  -0.00517123
 -0.01649617  -0.02759248  -0.00380191
 -0.01571812  -0.02909728  -0.00217595
 -0.01341064  -0.03058606  -0.00344036
 -0.01456102  -0.02897419  -0.00447352
 -0.01182636  -0.03200027  -0.00034448
 -0.01452194  -0.03033167   0.00130891
 -0.01279265  -0.03069423   0.00403222
 -0.01479709  -0.02867496   0.00447904
 -0.01144759  -0.02975477   0.00581997
 -0.00908256  -0.03236145   0.00410121
 -0.00816562  -0.02854461   0.00722812
 -0.01004800  -0.02613586   0.00902584
 -0.00382781  -0.03180517   0.01070866
 -0.00472510  -0.03045097   0.01217410
 -0.00562723  -0.02843958   0.01366377
 -0.00679018  -0.02938103   0.01075895
 -0.00870748  -0.02779774   0.00798068
 -0.00243873  -0.02900365   0.01471930
  0.00498862  -0.03076913   0.01329945
  0.00285343  -0.02722460   0.01658321
  0.00473420  -0.02939538   0.01472866
  0.00272892  -0.03099631   0.01387704
  0.00673103  -0.02984485   0.01187548
  0.00663883  -0.02968070   0.00808673
  0.00667921  -0.03007225   0.01009832
  0.00892966  -0.02786140   0.00886622
  0.01235102  -0.02922572   0.00657098
  0.01154216  -0.03174163   0.00391873
  0.00984383  -0.03141896   0.00481659
  0.01349883  -0.03043617   0.00454946
  0.01675580  -0.02815278  -0.00029555
  0.01493202  -0.03019331   0.00101987
  0.01414241  -0.03074854   0.00231387
  0.01013653  -0.03252313  -0.00210175
  0.01141302  -0.03199152   0.00003637
  0.01321796  -0.03116763  -0.00236081
  0.01429007  -0.02803539  -0.00670066
  0.01193625  -0.03044240  -0.00551387
  0.01239836  -0.03099426  -0.00418978
  0.01413784  -0.02949930  -0.00495703
  0.01060545  -0.02956877  -0.00666527
  0.00809098  -0.03124674  -0.00437332
  0.01223383  -0.02795318  -0.00788682
  0.01297992   0.00344574  -0.01770430
  0.01324388   0.00902831  -0.01782545
  0.01149407   0.00972907  -0.01954610
  0.01033061   0.00368511  -0.02007029
  0.00527546  -0.00887171  -0.01999146
  0.00145168  -0.00893159  -0.02081786
  0.00452459   0.00628480  -0.02181951
  0.00712874   0.00953846  -0.02138763
  0.00651587   0.00306069  -0.02138640
 -0.00861985  -0.00690079  -0.02034384
 -0.00726973   0.00085806  -0.02223056
 -0.00691590   0.00949402  -0.02236759
 -0.00871615   0.00936456  -0.02182563
 -0.00716075   0.00484000  -0.02252450
 -0.00408288   0.00110037  -0.02255566
 -0.00444747   0.00491775  -0.02270300
 -0.00904207   0.00257999  -0.02178040
 -0.01046475   0.00487100  -0.02068400
 -0.01053545   0.00086079  -0.02037917
 -0.01632055   0.00603391  -0.01277178
 -0.02073434  -0.00356612  -0.00829345
 -0.02335551  -0.00634754  -0.00293087
 -0.02377873   0.01322342  -0.00335064
 -0.02295683  -0.00458560  -0.00467070
 -0.02364663   0.01363121  -0.00544420
 -0.02233925   0.01350060  -0.00857978
 -0.02240509   0.00052533  -0.00654091
 -0.02349943  -0.00531858  -0.00049171
 -0.02056096   0.00006994   0.00808312
 -0.02242867   0.00252024   0.00476689
 -0.01417720  -0.01423321   0.01218595
 -0.01302059   0.00501427   0.01736306
 -0.01259024  -0.00506401   0.01599472
 -0.01000403  -0.00510261   0.01837998
 -0.01129282   0.00798473   0.01939905
 -0.00634341   0.00445905   0.02153821
 -0.00127912  -0.00537286   0.02160446
 -0.00111321   0.00381868   0.02249037
 -0.00944995   0.00471712   0.02027798
 -0.00952204   0.01060075   0.02063867
  0.00241745   0.00401952   0.02266772
  0.00784773  -0.00644308   0.01993353
  0.00678522   0.00497249   0.02217988
  0.00676134   0.01022981   0.02228747
  0.00483703   0.00401075   0.02249202
  0.00862132   0.00469685   0.02139229
  0.00931480  -0.00611505   0.01868807
  0.01091383  -0.00624764   0.01675459
  0.01046637   0.00719287   0.02039594
  0.01398403  -0.00135527   0.01321032
  0.01197675   0.00410517   0.01817356
  0.01346823  -0.00759646   0.01253256
  0.01963642  -0.00513699   0.00763228
  0.01891317   0.00034463   0.00912837
  0.02148325  -0.00231050   0.00573150
  0.02263232   0.00251017   0.00385440
  0.02154434   0.00256396   0.00651118
  0.02328810  -0.00881423   0.00101770
  0.02306036   0.00085593   0.00191443
  0.02328774   0.00571536   0.00182918
  0.02320610   0.01267311   0.00660362
  0.02305907  -0.00943877  -0.00164356
  0.02305189   0.00235606  -0.00306501
  0.02319159   0.01192822  -0.00596946
  0.02211101   0.00901845  -0.00829229
  0.02218303   0.00001672  -0.00600959
  0.02375171   0.01228672  -0.00286656
  0.01914038  -0.01722819  -0.00752258
  0.02062311   0.00616941  -0.00998186
  0.01527190  -0.00075365  -0.01380457
  0.00335749  -0.03157992  -0.01105776
  0.00632759  -0.02898766  -0.00838710
 -0.00019047  -0.03166794  -0.01235210
  0.00208995  -0.03264686  -0.00916295
  0.00180506  -0.03227402  -0.01076604
 -0.00199280  -0.03136951  -0.01331117
 -0.00161231  -0.03291696  -0.00963487
 -0.00381942  -0.03029070  -0.00543893
 -0.00278032  -0.03248406  -0.00848150
 -0.00730045  -0.03128926  -0.00399977
 -0.00553954  -0.02950935  -0.00543333
 -0.00854974  -0.03267647  -0.00296043
 -0.00701152  -0.03329326  -0.00185212
 -0.01001815  -0.03292270  -0.00179716
 -0.00914239  -0.03305711  -0.00240256
 -0.01250026  -0.03169653   0.00188394
 -0.01065742  -0.03217855   0.00360582
 -0.00969320  -0.03271442   0.00001655
 -0.00971548  -0.03307392   0.00213834
 -0.00776109  -0.03301479   0.00031670
 -0.00933003  -0.03296608   0.00304945
 -0.00783472  -0.03337545   0.00208326
 -0.00742457  -0.03312250   0.00317251
 -0.00642328  -0.03250400   0.00377447
 -0.00833428  -0.03186721   0.00459441
 -0.00533369  -0.03093625   0.00958962
 -0.00449339  -0.03160147   0.00858340
 -0.00260557  -0.03243313   0.00731462
 -0.00199337  -0.03095130   0.01312907
  0.00290983  -0.03197609   0.01253014
 -0.00241223  -0.03258334   0.01008429
 -0.00190807  -0.03283490   0.00927041
  0.00304656  -0.03293571   0.01048110
  0.00430048  -0.03210220   0.01155651
  0.00082083  -0.03255871   0.01063180
  0.00452500  -0.03225640   0.00989917
  0.01026050  -0.03230929   0.00358821
  0.01122043  -0.03226553   0.00236517
  0.00913327  -0.03274277   0.00215576
  0.00950328  -0.03244735  -0.00300575
  0.00829524  -0.03272291  -0.00144404
  0.00765659  -0.03248596  -0.00244699
  0.00905982  -0.03190292  -0.00398468
  0.00263526  -0.03124435  -0.00343571
  0.00519207  -0.02969384  -0.00650286
  0.00190084  -0.03261368  -0.00666619
  0.00332521  -0.03203900  -0.00895964
  0.00303756  -0.03192631  -0.00621892
  0.00177830  -0.03192757  -0.00385810
  0.00093018  -0.03104022  -0.00238551
 -0.00128911  -0.03302320  -0.00689896
 -0.00078463  -0.03245116  -0.00451579
  0.00012711  -0.03234406  -0.00952009
  0.00054737  -0.03210752  -0.00573201
 -0.00199042  -0.03246866  -0.00608804
 -0.00099389  -0.03198427  -0.00364307
 -0.00615920  -0.03170263  -0.00314840
 -0.00470575  -0.03252994  -0.00138204
 -0.00432969  -0.03050960  -0.00294621
 -0.00506451  -0.03302025  -0.00067140
 -0.00779151  -0.03349303  -0.00122449
 -0.00328197  -0.03214010  -0.00003223
 -0.00532162  -0.03299506   0.00237178
 -0.00423640  -0.03167293   0.00355155
 -0.00672151  -0.03003876   0.00567845
  0.00086833  -0.03279174   0.00907673
 -0.00340114  -0.03244317   0.00900005
 -0.00148915  -0.03277133   0.00762401
 -0.00141022  -0.03197093   0.00555870
  0.00092369  -0.03244305   0.00724508
  0.00230030  -0.03258980   0.00698452
  0.00271294  -0.03304527   0.00892929
  0.00190138  -0.03188833   0.00556747
  0.00380607  -0.03226015   0.00803783
  0.00262203  -0.03144438   0.00524664
  0.00827221  -0.02984254   0.00612195
  0.00895054  -0.03231617   0.00026496
  0.00776031  -0.03199987   0.00373340
  0.00861559  -0.03253149   0.00319248
  0.00534400  -0.03137266   0.00310169
  0.00661070  -0.03229650   0.00233651
  0.00492961  -0.03152489   0.00221207
  0.00644373  -0.03232678  -0.00066998
  0.00462116  -0.03147157  -0.00004413
  0.00705448  -0.03194099   0.00058570
  0.00593089  -0.03208940  -0.00135117
  0.00678272  -0.03154121  -0.00315452
  0.00654789  -0.02953999  -0.00509127
  0.00799650   0.02091569  -0.01668262
  0.00890951   0.02147567  -0.01506315
  0.01038488   0.02116426  -0.01324270
  0.01016985   0.02062514  -0.00980913
  0.01130299   0.02039387  -0.01033052
  0.00700137   0.02206208  -0.01517167
  0.00492377   0.02151364  -0.01640327
  0.00008352   0.02107727  -0.01414886
  0.00002946   0.02061798  -0.01592430
  0.00695376   0.02243069  -0.01374658
  0.00440125   0.02209084  -0.01510042
 -0.00395373   0.02178606  -0.01557744
 -0.00326392   0.02037254  -0.01808605
 -0.00349291   0.02192928  -0.01375792
 -0.00737140   0.02143461  -0.01390062
 -0.00560415   0.02196479  -0.01469523
 -0.01507087   0.02170607  -0.00819381
 -0.01621625   0.02233600  -0.00660500
 -0.01620528   0.02242162  -0.00480882
 -0.01825679   0.02120981  -0.00112777
 -0.01788836   0.02200413  -0.00400937
 -0.02009307   0.02037688  -0.00113715
 -0.01913874   0.02122788   0.00286630
 -0.01695135   0.02229268   0.00602887
 -0.01546321   0.02273720   0.00531708
 -0.01728643   0.02211866   0.00252900
 -0.01568064   0.02214047   0.00789694
[...]
POINT_DATA 1355
SCALARS pepper_field double 1
LOOKUP_TABLE default
      49451.25349873
      49591.81066346
      49532.07075359
      49997.62255017
      49285.29266949
      50000.00000000
      49552.26476370
      49668.04226745
         -0.00000000
          0.00000000
          0.00000000
          0.00000000
          0.00000000
          0.00000000
          0.00000000
          0.00000000
          0.00000000
          0.00000000
          0.00000000
          0.00000000
          0.00000000
          0.00000000
          0.00000000
          0.00000000
          0.00000000
          0.00000000
          0.00000000
         -0.00000000
          0.00000000
         -0.00000000
          0.00000000
          0.00000000
         -0.00000000
          0.00000000
          0.00000000
          0.00000000
          0.00000000
          0.00000000
          0.00000000
          0.00000000
          0.00000000
          0.00000000
         -0.00000000
          0.00000000
          0.00000000
          0.00000000
          0.00000000
          0.00000000
          0.00000000
          0.00000000
          0.00000000
          0.00000000
         -0.00000000
          0.00000000
          0.00000000
          0.00000000
          0.00000000
          0.00000000
          0.00000000
          0.00000000
          0.00000000
         -0.00000000
          0.00000000
          0.00000000
          0.00000000
         -0.00000000
          0.00000000
          0.00000000
          0.00000000
          0.00000000
          0.00000000
          0.00000000
          0.00000000
          0.00000000
          0.00000000
          0.00000000
          0.00000000
          0.00000000
          0.00000000
          0.00000000
          0.00000000
          0.00000000
          0.00000000
          0.00000000
          0.00000000
          0.00000000
          0.00000000
          0.00000000
          0.00000000
         -0.00000000
          0.00000000
         -0.00000000
          0.00000000
          0.00000000
          0.00000000
          0.00000000
          0.00000000
          0.00000000
          0.00000000
          0.00000000
          0.00000000
          0.00000000
         -0.00000000
         -0.00000000
          0.00000000
          0.00000000
          0.00000000
          0.00000000
          0.00000000
         -0.00000000
          0.00000000
          0.00000000
          0.00000000
          0.00000000
          0.00000000
         -0.00000000
          0.00000000
         -0.00000000
          0.00000000
          0.00000000
          0.00000000
          0.00000000
          0.00000000
          0.00000000
          0.00000000
          0.00000000
          0.00000000
          0.00000000
          0.00000000
          0.00000000
          0.00000000
          0.00000000
         -0.00000000
          0.00000000
          0.00000000
          0.00000000
          0.00000000
          0.00000000
          0.00000000
          0.00000000
          0.00000000
          0.00000000
         -0.00000000
         -0.00000000
         -0.00000000
         -0.00000000
          0.00000000
          0.00000000
          0.00000000
          0.00000000
          0.00000000
          0.00000000
         -0.00000000
         -0.00000000
          0.00000000
          0.00000000
          0.00000000
          0.00000000
          0.00000000
          0.00000000
          0.00000000
          0.00000000
          0.00000000
          0.00000000
          0.00000000
          0.00000000
          0.00000000
          0.00000000
          0.00000000
          0.00000000
          0.00000000
          0.00000000
          0.00000000
          0.00000000
         -0.00000000
          0.00000000
          0.00000000
          0.00000000
         -0.00000000
          0.00000000
          0.00000000
         -0.00000000
          0.00000000
          0.00000000
          0.00000000
          0.00000000
          0.00000000
         -0.00000000
          0.00000000
          0.00000000
          0.00000000
          0.00000000
          0.00000000
         -0.00000000
          0.00000000
         -0.00000000
          0.00000000
          0.00000000
          0.00000000
          0.00000000
         -0.00000000
          0.00000000
          0.00000000
          0.00000000
          0.00000000
          0.00000000
          0.00000000
          0.00000000
          0.00000000
          0.00000000
          0.00000000
          0.00000000
          0.00000000
          0.00000000
          0.00000000
          0.00000000
          0.00000000
          0.00000000
          0.00000000
          0.00000000
          0.00000000
          0.00000000
          0.00000000
          0.00000000
          0.00000000
         -0.00000000
          0.00000000
          0.00000000
         -0.00000000
          0.00000000
          0.00000000
         -0.00000000
          0.00000000
          0.00000000
          0.00000000
          0.00000000
         -0.00000000
          0.00000000
          0.00000000
          0.00000000
         -0.00000000
          0.00000000
          0.00000000
          0.00000000
          0.00000000
          0.00000000
          0.00000000
          0.00000000
          0.00000000
          0.00000000
          0.00000000
          0.00000000
         -0.00000000
          0.00000000
          0.00000000
          0.00000000
         -0.00000000
          0.00000000
          0.00000000
          0.00000000
          0.00000000
         -0.00000000
          0.00000000
          0.00000000
          0.00000000
         -0.00000000
          0.00000000
          0.00000000
          0.00000000
          0.00000000
          0.00000000
          0.00000000
          0.00000000
          0.00000000
          0.00000000
          0.00000000
          0.00000000
         -0.00000000
          0.00000000
          0.00000000
          0.00000000
          0.00000000
          0.00000000
          0.00000000
         -0.00000000
          0.00000000
          0.00000000
         -0.00000000
          0.00000000
          0.00000000
          0.00000000
          0.00000000
         -0.00000000
         -0.00000000
          0.00000000
          0.00000000
          0.00000000
          0.00000000
          0.00000000
          0.00000000
          0.00000000
          0.00000000
          0.00000000
          0.00000000
          0.00000000
          0.00000000
          0.00000000
          0.00000000
          0.00000000
         -0.00000000
         -0.00000000
          0.00000000
          0.00000000
          0.00000000
          0.00000000
          0.00000000
          0.00000000
          0.00000000
         -0.00000000
          0.00000000
          0.00000000
          0.00000000
         -0.00000000
         -0.00000000
         -0.00000000
          0.00000000
         -0.00000000
         -0.00000000
         -0.00000000
          0.00000000
         -0.00000000
          0.00000000
          0.00000000
          0.00000000
          0.00000000
          0.00000000
          0.00000000
          0.00000000
          0.00000000
          0.00000000
          0.00000000
         -0.00000000
          0.00000000
          0.00000000
          0.00000000
          0.00000000
          0.00000000
         -0.00000000
          0.00000000
         -0.00000000
          0.00000000
          0.00000000
          0.00000000
          0.00000000
          0.00000000
         -0.00000000
          0.00000000
          0.00000000
          0.00000000
          0.00000000
          0.00000000
          0.00000000
          0.00000000
          0.00000000
          0.00000000
         -0.00000000
          0.00000000
          0.00000000
          0.00000000
          0.00000000
          0.00000000
          0.00000000
          0.00000000
          0.00000000
          0.00000000
          0.00000000
          0.00000000
          0.00000000
          0.00000000
          0.00000000
          0.00000000
         -0.00000000
          0.00000000
          0.00000000
          0.00000000
          0.00000000
          0.00000000
          0.00000000
          0.00000000
          0.00000000
          0.00000000
          0.00000000
          0.00000000
          0.00000000
         -0.00000000
          0.00000000
         -0.00000000
          0.00000000
          0.00000000
          0.00000000
          0.00000000
          0.00000000
          0.00000000
          0.00000000
          0.00000000
          0.00000000
          0.00000000
          0.00000000
          0.00000000
          0.00000000
          0.00000000
          0.00000000
          0.00000000
          0.00000000
          0.00000000
          0.00000000
         -0.00000000
          0.00000000
          0.00000000
          0.00000000
          0.00000000
          0.00000000
          0.00000000
          0.00000000
         -0.00000000
          0.00000000
          0.00000000
         -0.00000000
          0.00000000
         -0.00000000
          0.00000000
          0.00000000
         -0.00000000
          0.00000000
          0.00000000
          0.00000000
         -0.00000000
          0.00000000
          0.00000000
          0.00000000
          0.00000000
          0.00000000
          0.00000000
         -0.00000000
          0.00000000
          0.00000000
          0.00000000
         -0.00000000
          0.00000000
          0.00000000
          0.00000000
          0.00000000
          0.00000000
          0.00000000
         -0.00000000
          0.00000000
          0.00000000
          0.00000000
          0.00000000
          0.00000000
          0.00000000
          0.00000000
          0.00000000
          0.00000000
          0.00000000
          0.00000000
         -0.00000000
          0.00000000
          0.00000000
          0.00000000
          0.00000000
         -0.00000000
          0.00000000
          0.00000000
          0.00000000
          0.00000000
          0.00000000
          0.00000000
          0.00000000
          0.00000000
          0.00000000
          0.00000000
          0.00000000
          0.00000000
          0.00000000
          0.00000000
          0.00000000
          0.00000000
          0.00000000
          0.00000000
          0.00000000
          0.00000000
          0.00000000
          0.00000000
          0.00000000
          0.00000000
          0.00000000
          0.00000000
          0.00000000
          0.00000000
          0.00000000
         -0.00000000
          0.00000000
          0.00000000
          0.00000000
         -0.00000000
          0.00000000
          0.00000000
         -0.00000000
          0.00000000
         -0.00000000
          0.00000000
          0.00000000
         -0.00000000
         -0.00000000
         -0.00000000
          0.00000000
          0.00000000
          0.00000000
          0.00000000
         -0.00000000
          0.00000000
         -0.00000000
          0.00000000
          0.00000000
          0.00000000
         -0.00000000
          0.00000000
          0.00000000
          0.00000000
          0.00000000
         -0.00000000
          0.00000000
          0.00000000
         -0.00000000
          0.00000000
          0.00000000
          0.00000000
          0.00000000
          0.00000000
          0.00000000
          0.00000000
          0.00000000
          0.00000000
         -0.00000000
          0.00000000
          0.00000000
          0.00000000
          0.00000000
          0.00000000
          0.00000000
          0.00000000
          0.00000000
          0.00000000
          0.00000000
          0.00000000
          0.00000000
          0.00000000
          0.00000000
          0.00000000
          0.00000000
          0.00000000
          0.00000000
          0.00000000
         -0.00000000
          0.00000000
         -0.00000000
          0.00000000
          0.00000000
          0.00000000
          0.00000000
         -0.00000000
          0.00000000
          0.00000000
          0.00000000
          0.00000000
          0.00000000
          0.00000000
          0.00000000
          0.00000000
          0.00000000
         -0.00000000
          0.00000000
          0.00000000
          0.00000000
          0.00000000
          0.00000000
         -0.00000000
          0.00000000
          0.00000000
          0.00000000
          0.00000000
         -0.00000000
          0.00000000
          0.00000000
          0.00000000
         -0.00000000
          0.00000000
          0.00000000
          0.00000000
          0.00000000
         -0.00000000
          0.00000000
          0.00000000
          0.00000000
          0.00000000
          0.00000000
          0.00000000
         -0.00000000
          0.00000000
          0.00000000
          0.00000000
          0.00000000
          0.00000000
          0.00000000
          0.00000000
          0.00000000
          0.00000000
          0.00000000
          0.00000000
          0.00000000
          0.00000000
          0.00000000
         -0.00000000
          0.00000000
         -0.00000000
          0.00000000
          0.00000000
          0.00000000
         -0.00000000
          0.00000000
          0.00000000
          0.00000000
          0.00000000
          0.00000000
          0.00000000
          0.00000000
          0.00000000
          0.00000000
          0.00000000
         -0.00000000
          0.00000000
          0.00000000
          0.00000000
          0.00000000
          0.00000000
          0.00000000
         -0.00000000
          0.00000000
          0.00000000
          0.00000000
         -0.00000000
          0.00000000
          0.00000000
          0.00000000
          0.00000000
          0.00000000
          0.00000000
          0.00000000
          0.00000000
          0.00000000
          0.00000000
          0.00000000
         -0.00000000
          0.00000000
          0.00000000
          0.00000000
          0.00000000
          0.00000000
          0.00000000
          0.00000000
          0.00000000
         -0.00000000
          0.00000000
          0.00000000
          0.00000000
          0.00000000
          0.00000000
         -0.00000000
          0.00000000
          0.00000000
          0.00000000
         -0.00000000
          0.00000000
          0.00000000
          0.00000000
          0.00000000
          0.00000000
          0.00000000
          0.00000000
          0.00000000
          0.00000000
          0.00000000
          0.00000000
          0.00000000
          0.00000000
          0.00000000
          0.00000000
          0.00000000
          0.00000000
          0.00000000
          0.00000000
          0.00000000
         -0.00000000
          0.00000000
          0.00000000
          0.00000000
          0.00000000
          0.00000000
          0.00000000
          0.00000000
          0.00000000
         -0.00000000
          0.00000000
          0.00000000
          0.00000000
         -0.00000000
          0.00000000
          0.00000000
          0.00000000
          0.00000000
          0.00000000
         -0.00000000
          0.00000000
          0.00000000
          0.00000000
          0.00000000
         -0.00000000
          0.00000000
          0.00000000
          0.00000000
          0.00000000
          0.00000000
         -0.00000000
          0.00000000
          0.00000000
         -0.00000000
         -0.00000000
          0.00000000
          0.00000000
          0.00000000
          0.00000000
          0.00000000
          0.00000000
         -0.00000000
          0.00000000
          0.00000000
          0.00000000
          0.00000000
          0.00000000
          0.00000000
          0.00000000
          0.00000000
          0.00000000
          0.00000000
          0.00000000
          0.00000000
          0.00000000
          0.00000000
         -0.00000000
          0.00000000
          0.00000000
          0.00000000
          0.00000000
          0.00000000
          0.00000000
          0.00000000
         -0.00000000
          0.00000000
          0.00000000
          0.00000000
          0.00000000
          0.00000000
          0.00000000
          0.00000000
          0.00000000
          0.00000000
          0.00000000
          0.00000000
          0.00000000
          0.00000000
          0.00000000
          0.00000000
          0.00000000
          0.00000000
          0.00000000
          0.00000000
          0.00000000
          0.00000000
          0.00000000
          0.00000000
         -0.00000000
          0.00000000
         -0.00000000
          0.00000000
          0.00000000
          0.00000000
          0.00000000
          0.00000000
          0.00000000
          0.00000000
         -0.00000000
          0.00000000
          0.00000000
          0.00000000
          0.00000000
         -0.00000000
         -0.00000000
         -0.00000000
         -0.00000000
          0.00000000
          0.00000000
          0.00000000
         -0.00000000
          0.00000000
          0.00000000
          0.00000000
          0.00000000
         -0.00000000
          0.00000000
          0.00000000
          0.00000000
          0.00000000
          0.00000000
          0.00000000
          0.00000000
          0.00000000
         -0.00000000
         -0.00000000
         -0.00000000
          0.00000000
         -0.00000000
          0.00000000
          0.00000000
          0.00000000
          0.00000000
          0.00000000
          0.00000000
          0.00000000
          0.00000000
          0.00000000
          0.00000000
         -0.00000000
          0.00000000
          0.00000000
          0.00000000
         -0.00000000
          0.00000000
          0.00000000
          0.00000000
          0.00000000
          0.00000000
          0.00000000
         -0.00000000
         -0.00000000
          0.00000000
          0.00000000
         -0.00000000
          0.00000000
          0.00000000
          0.00000000
          0.00000000
          0.00000000
          0.00000000
          0.00000000
          0.00000000
          0.00000000
          0.00000000
          0.00000000
      -5317.57065507
       1591.99175409
      -2942.62346377
      -8063.27816844
     -12125.72775790
      -5838.44517469
      -2804.14760874
      -6258.76727017
      -5526.87177692
      -9229.77656674
      -2904.80576911
       1900.01267385
      -2918.25589161
      -6435.19503218
     -10171.32645916
      -4900.40798708
      -4888.88207988
      -2829.59524464
       1131.53550886
       8576.90764987
      -3704.13771832
      -5824.24629932
      -4537.44742334
       1204.63415318
      -2766.46529286
      -3208.72465381
      -2440.38801771
      -4701.54117061
      -2425.45746486
      -3001.29672864
      -1809.60344835
      -1546.61365304
      -2435.34373558
      -3948.12875134
      -4325.46241757
      -6470.25362207
      -3670.41160435
      -2740.38420046
       2151.99607672
      -2666.22432593
      -6747.60480993
      -2329.32646281
      -3867.14537217
      -1935.93555253
      -1360.10995209
      -2110.74010430
      -4295.24861060
      -8829.28172370
      -2752.28241421
      -8640.49144670
      -1285.81455948
      -5367.63050347
        988.92721221
      -2725.35795271
      -3506.60221640
      -3792.12955705
      -3198.00825067
      -3265.79808657
      -2107.48097911
      -6276.27263382
      -1604.41155843
      -1793.68915767
      -2654.07969705
      -2538.70482229
      -1717.15250725
       6503.76680608
      -6453.63649532
      -2016.08662245
      -7371.64619069
      -2256.76037915
      -2168.11122733
      -1161.11799207
      -3075.07282999
      -1463.96242833
       4358.34505960
      -2023.47896318
      -4007.96538615
      -2669.40376679
      -1858.30470266
      -4185.21507928