# vtk DataFile Version 2.0
Example of one-tetrahedron mesh
ASCII
DATASET UNSTRUCTURED_GRID
POINTS 4 float
0.0 0.0 0.0
1.0 0.0 0.0
0.0 1.0 0.0
0.0 0.0 1.0

CELLS 1 5
4 0 1 2 3

CELL_TYPES 1
10

POINT_DATA 4
SCALARS Pressure[Pa] double 1
LOOKUP_TABLE default
1.0
2.0
3.0
4.0

